LAMMPS (29 Oct 2020)
info all out overwrite tmp.txt
# =========================================================================
# LAMMPS main parameter file and script                                    
#                                                                          
# Author: Paul J. Atzberger.               
#
# Based on script generated by SELM Model Builder.
#                                                                          
# =========================================================================
# == Setup variables for the script 
variable dumpfreq         equal    1
variable restart          equal    0
variable neighborSkinDist equal    1.0 # distance for bins beyond force cut-off (1.0 = 1.0 Ang for units = real) 
variable baseFilename     universe Model
# == Setup the log file
#log         ${baseFilename}.LAMMPS_logFile
#(New) setup the force term by adding a group of random atoms with specific force (Constant force for simple case)
#create_atoms 1 random 100 127569 box
#group obstacle type 1
#fix 4 force_term setforce 3.0 0.0 0.0
#(/New)
# == Setup style of the run
# type of units to use in the simulation (units used are in fact: amu, nm, ns, Kelvins)
units       nano
# indicates possible types allowed for interactions between the atoms
atom_style  angle 
# indicates possible types allowed for bonds between the atoms 
# bond_style  hybrid harmonic
# indicates possible types allowed for bond angles between the atoms 
angle_style none
# indicates type of boundary conditions in each direction (p = periodic) 
boundary p p p 
read_data ${baseFilename}.LAMMPS_read_data # file of atomic coordinates and topology
read_data Model.LAMMPS_read_data 
Reading data file ...
  triclinic box = (-202.00000 -202.00000 -202.00000) to (202.00000 202.00000 202.00000) with tilt (0.0000000 0.0000000 0.0000000)
  1 by 1 by 1 MPI processor grid
  reading atoms ...
  2664 atoms
Finding 1-2 1-3 1-4 neighbors ...
  special bond factors lj:    0.0      0.0      0.0     
  special bond factors coul:  0.0      0.0      0.0     
     0 = max # of 1-2 neighbors
     0 = max # of 1-3 neighbors
     0 = max # of 1-4 neighbors
     1 = max # of special neighbors
  special bonds CPU = 0.001 seconds
  read_data CPU = 0.006 seconds
velocity all zero linear                   # initialize all atomic velocities initially to zero
# == Interactions 
pair_style none
atom_modify sort 1000 ${neighborSkinDist}          # setup sort data explicitly since no interactions to set this data. 
atom_modify sort 1000 1          
# == Setup neighbor list distance
comm_style tiled
comm_modify mode single cutoff 202.0 vel yes
neighbor ${neighborSkinDist} bin                    # first number gives a distance beyond the force cut-off ${neighborSkinDist}
neighbor 1 bin                    
neigh_modify every 1
atom_modify sort 0 ${neighborSkinDist}           # setup sort data explicitly since no interactions to set this data. 
atom_modify sort 0 1           
# == Setup the SELM integrator
fix 1 all selm Main.SELM_params
# note langevin just computes forces, nve integrates the motions
#fix 1 all langevin 298.15 298.15 0.00001 48279
#fix 2 all nve
# define groups
region 1 block INF INF INF -200 INF INF
group lower_y region 1
0 atoms in group lower_y
region 2 block INF -200 INF INF  INF INF
group lower_x region 2
0 atoms in group lower_x
region 3 block INF  INF INF  INF INF -200
group lower_z region 3
0 atoms in group lower_z
region 4 block INF INF 200 INF  INF INF
group upper_y region 4
0 atoms in group upper_y
region 5 block 200 INF INF INF  INF INF
group upper_x region 5
0 atoms in group upper_x
region 6 block INF  INF INF  INF 200 INF
group upper_z region 6
0 atoms in group upper_z
# define groups
group boundary union lower_y lower_x lower_z upper_y upper_x upper_z
0 atoms in group boundary
group flow subtract all boundary
2664 atoms in group flow
region 7 sphere -118.58278590362993 -98.36244172229715 -25.362631893840756 40
region 8 sphere 85.93951232259565 48.826222953243786 -141.61068007687464 40
region 9 sphere -71.10697357365683 89.94220825739703 -59.05760141596289 40
region 10 sphere -87.7382077240294 62.825225011967916 77.32072433888973 40
region 11 sphere -3.334422998356615 -116.89271571509316 -109.08709578875971 40
region 12 sphere -87.52673074060525 -15.799250746379073 3.6605695841456622 40
region 13 sphere -71.09376433120173 154.98965300457928 146.3808815691392 40
region 14 sphere -5.721584509443886 47.69806893637633 -116.00245439870793 40
region 15 sphere -101.24269053037295 -108.20677185457171 61.544725863922594 40
region 16 sphere 153.5888088375828 156.7719538138166 -55.68809287735843 40
delete_atoms region 7
WARNING: Ignoring 'compress yes' for molecular system (../delete_atoms.cpp:125)
Deleted 10 atoms, new total = 2654
fix 7 flow indent 10.0 sphere -118.58278590362993 -98.36244172229715 -25.362631893840756 41
delete_atoms region 8
WARNING: Ignoring 'compress yes' for molecular system (../delete_atoms.cpp:125)
Deleted 13 atoms, new total = 2641
fix 8 flow indent 10.0 sphere 85.93951232259565 48.826222953243786 -141.61068007687464 41
delete_atoms region 9
WARNING: Ignoring 'compress yes' for molecular system (../delete_atoms.cpp:125)
Deleted 11 atoms, new total = 2630
fix 9 flow indent 10.0 sphere -71.10697357365683 89.94220825739703 -59.05760141596289 41
delete_atoms region 10
WARNING: Ignoring 'compress yes' for molecular system (../delete_atoms.cpp:125)
Deleted 10 atoms, new total = 2620
fix 10 flow indent 10.0 sphere -87.7382077240294 62.825225011967916 77.32072433888973 41
delete_atoms region 11
WARNING: Ignoring 'compress yes' for molecular system (../delete_atoms.cpp:125)
Deleted 10 atoms, new total = 2610
fix 11 flow indent 10.0 sphere -3.334422998356615 -116.89271571509316 -109.08709578875971 41
delete_atoms region 12
WARNING: Ignoring 'compress yes' for molecular system (../delete_atoms.cpp:125)
Deleted 11 atoms, new total = 2599
fix 12 flow indent 10.0 sphere -87.52673074060525 -15.799250746379073 3.6605695841456622 41
delete_atoms region 13
WARNING: Ignoring 'compress yes' for molecular system (../delete_atoms.cpp:125)
Deleted 11 atoms, new total = 2588
fix 13 flow indent 10.0 sphere -71.09376433120173 154.98965300457928 146.3808815691392 41
delete_atoms region 14
WARNING: Ignoring 'compress yes' for molecular system (../delete_atoms.cpp:125)
Deleted 10 atoms, new total = 2578
fix 14 flow indent 10.0 sphere -5.721584509443886 47.69806893637633 -116.00245439870793 41
delete_atoms region 15
WARNING: Ignoring 'compress yes' for molecular system (../delete_atoms.cpp:125)
Deleted 11 atoms, new total = 2567
fix 15 flow indent 10.0 sphere -101.24269053037295 -108.20677185457171 61.544725863922594 41
delete_atoms region 16
WARNING: Ignoring 'compress yes' for molecular system (../delete_atoms.cpp:125)
Deleted 14 atoms, new total = 2553
fix 16 flow indent 10.0 sphere 153.5888088375828 156.7719538138166 -55.68809287735843 41
##(New) fix spring 
fix 4 all spring tether 5.0 0.0 0.0 0.0 5.0
group forcing type 3
1271 atoms in group forcing
fix 5 forcing setforce 80.0 0.0 0.0
info all out
WARNING: Ignoring unknown or incorrect info command flag (../info.cpp:257)
# == Setup output data write to disk
dump        dmp_vtk all vtk ${dumpfreq} ./vtk/Particles_*.vtp id type vx fx
dump        dmp_vtk all vtk 1 ./vtk/Particles_*.vtp id type vx fx
dump_modify dmp_vtk pad 8 # ensures filenames file_000000.data
# == simulation time-stepping
timestep 6
# == Run the simulation
run      100 upto
Neighbor list info ...
  update every 1 steps, delay 10 steps, check yes
  max neighbors/atom: 2000, page size: 100000
  master list distance cutoff = 0
  ghost atom cutoff = 202
  binsize = 404, bins = 1 1 1
  0 neighbor lists, perpetual/occasional/extra = 0 0 0
Per MPI rank memory allocation (min/avg/max) = 8.103 | 8.103 | 8.103 Mbytes
Step Temp E_pair E_mol TotEng Press Volume 
       0            0            0            0            0            0     65939264 
     100    1.9541054            0            0      103.277 1.0441629e-06     65939264 
Loop time of 47.2709 on 1 procs for 100 steps with 2553 atoms

Performance: 1096657.774 ns/day, 0.000 hours/ns, 2.115 timesteps/s
97.1% CPU use with 1 MPI tasks x no OpenMP threads

MPI task timing breakdown:
Section |  min time  |  avg time  |  max time  |%varavg| %total
---------------------------------------------------------------
Pair    | 0          | 0          | 0          |   0.0 |  0.00
Bond    | 2.3842e-05 | 2.3842e-05 | 2.3842e-05 |   0.0 |  0.00
Neigh   | 0.0002439  | 0.0002439  | 0.0002439  |   0.0 |  0.00
Comm    | 0.1044     | 0.1044     | 0.1044     |   0.0 |  0.22
Output  | 1.7278     | 1.7278     | 1.7278     |   0.0 |  3.66
Modify  | 45.432     | 45.432     | 45.432     |   0.0 | 96.11
Other   |            | 0.006368   |            |       |  0.01

Nlocal:        2553.00 ave        2553 max        2553 min
Histogram: 1 0 0 0 0 0 0 0 0 0
Nghost:        17871.0 ave       17871 max       17871 min
Histogram: 1 0 0 0 0 0 0 0 0 0
Neighs:        0.00000 ave           0 max           0 min
Histogram: 1 0 0 0 0 0 0 0 0 0

Total # of neighbors = 0
Ave neighs/atom = 0.0000000
Ave special neighs/atom = 0.0000000
Neighbor list builds = 10
Dangerous builds = 10
# == Write restart data
write_restart ${baseFilename}.LAMMPS_restart_data
write_restart Model.LAMMPS_restart_data
System init for write_restart ...

Please see the log.cite file for references relevant to this simulation

Total wall time: 0:00:47
