LAMMPS (29 Oct 2020)
info all out overwrite tmp.txt
# =========================================================================
# LAMMPS main parameter file and script                                    
#                                                                          
# Author: Paul J. Atzberger.               
#
# Based on script generated by SELM Model Builder.
#                                                                          
# =========================================================================
# == Setup variables for the script 
variable dumpfreq         equal    1
variable restart          equal    0
variable neighborSkinDist equal    1.0 # distance for bins beyond force cut-off (1.0 = 1.0 Ang for units = real) 
variable baseFilename     universe Model
# == Setup the log file
#log         ${baseFilename}.LAMMPS_logFile
#(New) setup the force term by adding a group of random atoms with specific force (Constant force for simple case)
#create_atoms 1 random 100 127569 box
#group obstacle type 1
#fix 4 force_term setforce 3.0 0.0 0.0
#(/New)
# == Setup style of the run
# type of units to use in the simulation (units used are in fact: amu, nm, ns, Kelvins)
units       nano
# indicates possible types allowed for interactions between the atoms
atom_style  angle 
# indicates possible types allowed for bonds between the atoms 
# bond_style  hybrid harmonic
# indicates possible types allowed for bond angles between the atoms 
angle_style none
# indicates type of boundary conditions in each direction (p = periodic) 
boundary p p p 
read_data ${baseFilename}.LAMMPS_read_data # file of atomic coordinates and topology
read_data Model.LAMMPS_read_data 
Reading data file ...
  triclinic box = (-202.00000 -202.00000 -202.00000) to (202.00000 202.00000 202.00000) with tilt (0.0000000 0.0000000 0.0000000)
  1 by 1 by 1 MPI processor grid
  reading atoms ...
  2664 atoms
Finding 1-2 1-3 1-4 neighbors ...
  special bond factors lj:    0.0      0.0      0.0     
  special bond factors coul:  0.0      0.0      0.0     
     0 = max # of 1-2 neighbors
     0 = max # of 1-3 neighbors
     0 = max # of 1-4 neighbors
     1 = max # of special neighbors
  special bonds CPU = 0.001 seconds
  read_data CPU = 0.006 seconds
velocity all zero linear                   # initialize all atomic velocities initially to zero
# == Interactions 
pair_style none
atom_modify sort 1000 ${neighborSkinDist}          # setup sort data explicitly since no interactions to set this data. 
atom_modify sort 1000 1          
# == Setup neighbor list distance
comm_style tiled
comm_modify mode single cutoff 202.0 vel yes
neighbor ${neighborSkinDist} bin                    # first number gives a distance beyond the force cut-off ${neighborSkinDist}
neighbor 1 bin                    
neigh_modify every 1
atom_modify sort 0 ${neighborSkinDist}           # setup sort data explicitly since no interactions to set this data. 
atom_modify sort 0 1           
# == Setup the SELM integrator
fix 1 all selm Main.SELM_params
# note langevin just computes forces, nve integrates the motions
#fix 1 all langevin 298.15 298.15 0.00001 48279
#fix 2 all nve
# define groups
region 1 block INF INF INF -200 INF INF
group lower_y region 1
0 atoms in group lower_y
region 2 block INF -200 INF INF  INF INF
group lower_x region 2
0 atoms in group lower_x
region 3 block INF  INF INF  INF INF -200
group lower_z region 3
0 atoms in group lower_z
region 4 block INF INF 200 INF  INF INF
group upper_y region 4
0 atoms in group upper_y
region 5 block 200 INF INF INF  INF INF
group upper_x region 5
0 atoms in group upper_x
region 6 block INF  INF INF  INF 200 INF
group upper_z region 6
0 atoms in group upper_z
# define groups
group boundary union lower_y lower_x lower_z upper_y upper_x upper_z
0 atoms in group boundary
group flow subtract all boundary
2664 atoms in group flow
region 7 sphere 38.212705091615135 -43.133910769554575 176.51548788366387 50
region 8 sphere -153.57941464868952 104.44490792921977 -47.5197441407646 50
region 9 sphere 102.12775053530095 80.0347843809854 120.68520948033802 50
region 10 sphere -179.88555582739144 -170.93411987830737 -66.175786526721 50
region 11 sphere 102.37962695092659 199.807643805105 93.2528352449225 50
region 12 sphere 137.30380434130876 -40.0337639473797 76.54408429355988 50
region 13 sphere 116.8872351678757 -6.645716944259306 -124.09302639279925 50
region 14 sphere -84.91036712170236 17.790637824155453 -128.2247599510767 50
region 15 sphere -26.701201509201354 -118.7533292406147 -125.56583334968269 50
region 16 sphere -185.12319987967297 -0.6385748786128147 144.28879397484081 50
delete_atoms region 7
WARNING: Ignoring 'compress yes' for molecular system (../delete_atoms.cpp:125)
Deleted 20 atoms, new total = 2644
fix 7 flow indent 100 sphere 38.212705091615135 -43.133910769554575 176.51548788366387 4
delete_atoms region 8
WARNING: Ignoring 'compress yes' for molecular system (../delete_atoms.cpp:125)
Deleted 19 atoms, new total = 2625
fix 8 flow indent 100 sphere -153.57941464868952 104.44490792921977 -47.5197441407646 4
delete_atoms region 9
WARNING: Ignoring 'compress yes' for molecular system (../delete_atoms.cpp:125)
Deleted 23 atoms, new total = 2602
fix 9 flow indent 100 sphere 102.12775053530095 80.0347843809854 120.68520948033802 4
delete_atoms region 10
WARNING: Ignoring 'compress yes' for molecular system (../delete_atoms.cpp:125)
Deleted 17 atoms, new total = 2585
fix 10 flow indent 100 sphere -179.88555582739144 -170.93411987830737 -66.175786526721 4
delete_atoms region 11
WARNING: Ignoring 'compress yes' for molecular system (../delete_atoms.cpp:125)
Deleted 8 atoms, new total = 2577
fix 11 flow indent 100 sphere 102.37962695092659 199.807643805105 93.2528352449225 4
delete_atoms region 12
WARNING: Ignoring 'compress yes' for molecular system (../delete_atoms.cpp:125)
Deleted 24 atoms, new total = 2553
fix 12 flow indent 100 sphere 137.30380434130876 -40.0337639473797 76.54408429355988 4
delete_atoms region 13
WARNING: Ignoring 'compress yes' for molecular system (../delete_atoms.cpp:125)
Deleted 23 atoms, new total = 2530
fix 13 flow indent 100 sphere 116.8872351678757 -6.645716944259306 -124.09302639279925 4
delete_atoms region 14
WARNING: Ignoring 'compress yes' for molecular system (../delete_atoms.cpp:125)
Deleted 21 atoms, new total = 2509
fix 14 flow indent 100 sphere -84.91036712170236 17.790637824155453 -128.2247599510767 4
delete_atoms region 15
WARNING: Ignoring 'compress yes' for molecular system (../delete_atoms.cpp:125)
Deleted 20 atoms, new total = 2489
fix 15 flow indent 100 sphere -26.701201509201354 -118.7533292406147 -125.56583334968269 4
delete_atoms region 16
WARNING: Ignoring 'compress yes' for molecular system (../delete_atoms.cpp:125)
Deleted 16 atoms, new total = 2473
fix 16 flow indent 100 sphere -185.12319987967297 -0.6385748786128147 144.28879397484081 4
##(New) fix spring 
fix 4 all spring tether 5.0 0.0 0.0 0.0 5.0
group forcing type 3
1233 atoms in group forcing
fix 5 forcing setforce 300.0 0.0 0.0
info all out
WARNING: Ignoring unknown or incorrect info command flag (../info.cpp:257)
# == Setup output data write to disk
dump        dmp_vtk all vtk ${dumpfreq} ./vtk/Particles_*.vtp id type vx fx
dump        dmp_vtk all vtk 1 ./vtk/Particles_*.vtp id type vx fx
dump_modify dmp_vtk pad 8 # ensures filenames file_000000.data
# == simulation time-stepping
timestep 6
# == Run the simulation
run      100 upto
Neighbor list info ...
  update every 1 steps, delay 10 steps, check yes
  max neighbors/atom: 2000, page size: 100000
  master list distance cutoff = 0
  ghost atom cutoff = 202
  binsize = 404, bins = 1 1 1
  0 neighbor lists, perpetual/occasional/extra = 0 0 0
Per MPI rank memory allocation (min/avg/max) = 8.097 | 8.097 | 8.097 Mbytes
Step Temp E_pair E_mol TotEng Press Volume 
       0            0            0            0            0            0     65939264 
     100    110.47869            0            0    5655.9031 5.7182957e-05     65939264 
Loop time of 46.3412 on 1 procs for 100 steps with 2473 atoms

Performance: 1118658.118 ns/day, 0.000 hours/ns, 2.158 timesteps/s
97.2% CPU use with 1 MPI tasks x no OpenMP threads

MPI task timing breakdown:
Section |  min time  |  avg time  |  max time  |%varavg| %total
---------------------------------------------------------------
Pair    | 0          | 0          | 0          |   0.0 |  0.00
Bond    | 2.3127e-05 | 2.3127e-05 | 2.3127e-05 |   0.0 |  0.00
Neigh   | 0.00021696 | 0.00021696 | 0.00021696 |   0.0 |  0.00
Comm    | 0.1025     | 0.1025     | 0.1025     |   0.0 |  0.22
Output  | 1.5835     | 1.5835     | 1.5835     |   0.0 |  3.42
Modify  | 44.649     | 44.649     | 44.649     |   0.0 | 96.35
Other   |            | 0.006053   |            |       |  0.01

Nlocal:        2473.00 ave        2473 max        2473 min
Histogram: 1 0 0 0 0 0 0 0 0 0
Nghost:        17311.0 ave       17311 max       17311 min
Histogram: 1 0 0 0 0 0 0 0 0 0
Neighs:        0.00000 ave           0 max           0 min
Histogram: 1 0 0 0 0 0 0 0 0 0

Total # of neighbors = 0
Ave neighs/atom = 0.0000000
Ave special neighs/atom = 0.0000000
Neighbor list builds = 10
Dangerous builds = 10
# == Write restart data
write_restart ${baseFilename}.LAMMPS_restart_data
write_restart Model.LAMMPS_restart_data
System init for write_restart ...

Please see the log.cite file for references relevant to this simulation

Total wall time: 0:00:46
