LAMMPS (29 Oct 2020)
info all out overwrite tmp.txt
# =========================================================================
# LAMMPS main parameter file and script                                    
#                                                                          
# Author: Paul J. Atzberger.               
#
# Based on script generated by SELM Model Builder.
#                                                                          
# =========================================================================
# == Setup variables for the script 
variable dumpfreq         equal    1
variable restart          equal    0
variable neighborSkinDist equal    1.0 # distance for bins beyond force cut-off (1.0 = 1.0 Ang for units = real) 
variable baseFilename     universe Model
# == Setup the log file
#log         ${baseFilename}.LAMMPS_logFile
#(New) setup the force term by adding a group of random atoms with specific force (Constant force for simple case)
#create_atoms 1 random 100 127569 box
#group force_term type 1
#fix 4 force_term setforce 3.0 0.0 0.0
#(/New)
# == Setup style of the run
# type of units to use in the simulation (units used are in fact: amu, nm, ns, Kelvins)
units       nano
# indicates possible types allowed for interactions between the atoms
atom_style  angle 
# indicates possible types allowed for bonds between the atoms 
# bond_style  hybrid harmonic
# indicates possible types allowed for bond angles between the atoms 
angle_style none
# indicates type of boundary conditions in each direction (p = periodic) 
boundary p p p 
read_data ${baseFilename}.LAMMPS_read_data # file of atomic coordinates and topology
read_data Model.LAMMPS_read_data 
Reading data file ...
  triclinic box = (-202.00000 -202.00000 -202.00000) to (202.00000 202.00000 202.00000) with tilt (0.0000000 0.0000000 0.0000000)
  1 by 1 by 1 MPI processor grid
  reading atoms ...
  121 atoms
Finding 1-2 1-3 1-4 neighbors ...
  special bond factors lj:    0.0      0.0      0.0     
  special bond factors coul:  0.0      0.0      0.0     
     0 = max # of 1-2 neighbors
     0 = max # of 1-3 neighbors
     0 = max # of 1-4 neighbors
     1 = max # of special neighbors
  special bonds CPU = 0.000 seconds
  read_data CPU = 0.003 seconds
velocity all zero linear                   # initialize all atomic velocities initially to zero
# == Interactions 
pair_style none
atom_modify sort 1000 ${neighborSkinDist}          # setup sort data explicitly since no interactions to set this data. 
atom_modify sort 1000 1          
# == Setup neighbor list distance
comm_style tiled
comm_modify mode single cutoff 202.0 vel yes
neighbor ${neighborSkinDist} bin                    # first number gives a distance beyond the force cut-off ${neighborSkinDist}
neighbor 1 bin                    
neigh_modify every 1
atom_modify sort 0 ${neighborSkinDist}           # setup sort data explicitly since no interactions to set this data. 
atom_modify sort 0 1           
# == Setup the SELM integrator
fix 1 all selm Main.SELM_params
# note langevin just computes forces, nve integrates the motions
#fix 1 all langevin 298.15 298.15 0.00001 48279
#fix 2 all nve
##(New) fix spring 
fix 3 flow spring tehether 50.0 0.0 0.0 0.0 0.0
ERROR: Could not find fix group ID (../modify.cpp:815)
Last command: fix 3 flow spring tehether 50.0 0.0 0.0 0.0 0.0
# =========================================================================
# LAMMPS main parameter file and script                                    
#                                                                          
# Author: Paul J. Atzberger.               
#
# Based on script generated by SELM Model Builder.
#                                                                          
# =========================================================================
# == Setup variables for the script 
variable dumpfreq         equal    1
variable restart          equal    0
variable neighborSkinDist equal    1.0 # distance for bins beyond force cut-off (1.0 = 1.0 Ang for units = real) 
variable baseFilename     universe Model
# == Setup the log file
#log         ${baseFilename}.LAMMPS_logFile
#(New) setup the force term by adding a group of random atoms with specific force (Constant force for simple case)
#create_atoms 1 random 100 127569 box
#group force_term type 1
#fix 4 force_term setforce 3.0 0.0 0.0
#(/New)
# == Setup style of the run
# type of units to use in the simulation (units used are in fact: amu, nm, ns, Kelvins)
units       nano
ERROR: Units command after simulation box is defined (../input.cpp:1906)
Last command: units       nano
# =========================================================================
# LAMMPS main parameter file and script                                    
#                                                                          
# Author: Paul J. Atzberger.               
#
# Based on script generated by SELM Model Builder.
#                                                                          
# =========================================================================
# == Setup variables for the script 
variable dumpfreq         equal    1
variable restart          equal    0
variable neighborSkinDist equal    1.0 # distance for bins beyond force cut-off (1.0 = 1.0 Ang for units = real) 
variable baseFilename     universe Model
# == Setup the log file
#log         ${baseFilename}.LAMMPS_logFile
#(New) setup the force term by adding a group of random atoms with specific force (Constant force for simple case)
#create_atoms 1 random 100 127569 box
#group force_term type 1
#fix 4 force_term setforce 3.0 0.0 0.0
#(/New)
# == Setup style of the run
# type of units to use in the simulation (units used are in fact: amu, nm, ns, Kelvins)
units       nano
ERROR: Units command after simulation box is defined (../input.cpp:1906)
Last command: units       nano
# =========================================================================
# LAMMPS main parameter file and script                                    
#                                                                          
# Author: Paul J. Atzberger.               
#
# Based on script generated by SELM Model Builder.
#                                                                          
# =========================================================================
# == Setup variables for the script 
variable dumpfreq         equal    1
variable restart          equal    0
variable neighborSkinDist equal    1.0 # distance for bins beyond force cut-off (1.0 = 1.0 Ang for units = real) 
variable baseFilename     universe Model
# == Setup the log file
#log         ${baseFilename}.LAMMPS_logFile
#(New) setup the force term by adding a group of random atoms with specific force (Constant force for simple case)
#create_atoms 1 random 100 127569 box
#group force_term type 1
#fix 4 force_term setforce 3.0 0.0 0.0
#(/New)
# == Setup style of the run
# type of units to use in the simulation (units used are in fact: amu, nm, ns, Kelvins)
units       nano
ERROR: Units command after simulation box is defined (../input.cpp:1906)
Last command: units       nano
# =========================================================================
# LAMMPS main parameter file and script                                    
#                                                                          
# Author: Paul J. Atzberger.               
#
# Based on script generated by SELM Model Builder.
#                                                                          
# =========================================================================
# == Setup variables for the script 
variable dumpfreq         equal    1
variable restart          equal    0
variable neighborSkinDist equal    1.0 # distance for bins beyond force cut-off (1.0 = 1.0 Ang for units = real) 
variable baseFilename     universe Model
# == Setup the log file
#log         ${baseFilename}.LAMMPS_logFile
#(New) setup the force term by adding a group of random atoms with specific force (Constant force for simple case)
#create_atoms 1 random 100 127569 box
#group force_term type 1
#fix 4 force_term setforc