from selm_lammps.lammps import IPyLammps
For running LAMMPS changing the current working directory to:
/home/xsu2/Downloads/hydro/output/simulation_hydro1/hydro_test001
Model files being copied:
src = /home/xsu2/Downloads/hydro/Model1
dst = /home/xsu2/Downloads/hydro/output/simulation_hydro1/hydro_test001/
Copying notebook to archive:
src = /home/xsu2/Downloads/hydro/simulation_hydro1.ipynb
dst = /home/xsu2/Downloads/hydro/output/simulation_hydro1/hydro_test001/archive__simulation_hydro1.ipynb
atom_name = structure_pts
num_pts = 2
atom_name = tracer_pts
num_pts = 1331
atom_name = forcing terms
num_pts = 1331
Writing model data .pickle
filename = model_setup.pickle
Writing model data .read_data
filename = Model.LAMMPS_read_data
Sending commands to LAMMPs

# =========================================================================
# LAMMPS main parameter file and script                                    
#                                                                          
# Author: Paul J. Atzberger.               
#
# Based on script generated by SELM Model Builder.
#                                                                          
# =========================================================================

# == Setup variables for the script 

variable dumpfreq         equal    1
variable restart          equal    0
variable neighborSkinDist equal    1.0 # distance for bins beyond force cut-off (1.0 = 1.0 Ang for units = real) 
variable baseFilename     universe Model

# == Setup the log file
#log         ${baseFilename}.LAMMPS_logFile

#(New) setup the force term by adding a group of random atoms with specific force (Constant force for simple case)
#create_atoms 1 random 100 127569 box
#group obstacle type 1
#fix 4 force_term setforce 3.0 0.0 0.0
#(/New)

# == Setup style of the run

# type of units to use in the simulation (units used are in fact: amu, nm, ns, Kelvins)
units       nano

# indicates possible types allowed for interactions between the atoms
atom_style  angle 

# indicates possible types allowed for bonds between the atoms 
# bond_style  hybrid harmonic

# indicates possible types allowed for bond angles between the atoms 
angle_style none

# indicates type of boundary conditions in each direction (p = periodic) 
boundary p p p 
read_data ${baseFilename}.LAMMPS_read_data # file of atomic coordinates and topology
velocity all zero linear                   # initialize all atomic velocities initially to zero


Sending commands to LAMMPs

# == Interactions 
pair_style none
atom_modify sort 1000 ${neighborSkinDist}          # setup sort data explicitly since no interactions to set this data. 

# == Setup neighbor list distance
comm_style tiled
comm_modify mode single cutoff 202.0 vel yes

neighbor ${neighborSkinDist} bin                    # first number gives a distance beyond the force cut-off ${neighborSkinDist}
neigh_modify every 1
atom_modify sort 0 ${neighborSkinDist}           # setup sort data explicitly since no interactions to set this data. 



# == Setup the SELM integrator
fix 1 all selm Main.SELM_params

# note langevin just computes forces, nve integrates the motions
#fix 1 all langevin 298.15 298.15 0.00001 48279
#fix 2 all nve



Sending commands to LAMMPs

# 2 obstacles

region		void1 sphere 10 4 0 70
delete_atoms	region void1
region		void2 sphere 120 7 0 70
delete_atoms	region void2
Sending commands to LAMMPs

# define groups

region 1 block INF INF INF -200 INF INF
group lower_y region 1
region 2 block INF -200 INF INF  INF INF
group lower_x region 2
region 3 block INF  INF INF  INF INF -200
group lower_z region 3
region 4 block INF INF 200 INF  INF INF
group upper_y region 4
region 5 block 200 INF INF INF  INF INF
group upper_x region 5
region 6 block INF  INF INF  INF 200 INF
group upper_z region 6

Sending commands to LAMMPs

# define groups

group boundary union lower_y lower_x lower_z upper_y upper_x upper_z
group flow subtract all boundary

Sending commands to LAMMPs

fix 2 flow indent 100 sphere 10 4 0 4
fix 3 flow indent 100 sphere 20 7 0 4
Sending commands to LAMMPs

##(New) fix spring 
fix 4 all spring tether 5.0 0.0 0.0 0.0 5.0

Sending commands to LAMMPs

group forcing type 3
Sending commands to LAMMPs

fix 5 forcing setforce 300.0 0.0 0.0
Sending commands to LAMMPs

info all out
Sending commands to LAMMPs

# == Setup output data write to disk
dump        dmp_vtk all vtk ${dumpfreq} ./vtk/Particles_*.vtp id type vx fx
dump_modify dmp_vtk pad 8 # ensures filenames file_000000.data

# == simulation time-stepping
timestep 6

# == Run the simulation
run      100 upto
Done
No such comm target registered: jupyter.widget.control
No such comm: 92fc2d84-d8b5-4890-92ab-7a2a96dfa800
