from selm_lammps.lammps import IPyLammps
For running LAMMPS changing the current working directory to:
/home/xsu2/Downloads/hydro/output/simulation_hydro1/hydro_test001
Model files being copied:
src = /home/xsu2/Downloads/hydro/Model1
dst = /home/xsu2/Downloads/hydro/output/simulation_hydro1/hydro_test001/
Copying notebook to archive:
src = /home/xsu2/Downloads/hydro/simulation_hydro1.ipynb
dst = /home/xsu2/Downloads/hydro/output/simulation_hydro1/hydro_test001/archive__simulation_hydro1.ipynb
atom_name = structure_pts
num_pts = 2
atom_name = tracer_pts
num_pts = 1331
atom_name = forcing terms
num_pts = 1331
Writing model data .pickle
filename = model_setup.pickle
Writing model data .read_data
filename = Model.LAMMPS_read_data
Sending commands to LAMMPs

# =========================================================================
# LAMMPS main parameter file and script                                    
#                                                                          
# Author: Paul J. Atzberger.               
#
# Based on script generated by SELM Model Builder.
#                                                                          
# =========================================================================

# == Setup variables for the script 

variable dumpfreq         equal    1
variable restart          equal    0
variable neighborSkinDist equal    1.0 # distance for bins beyond force cut-off (1.0 = 1.0 Ang for units = real) 
variable baseFilename     universe Model

# == Setup the log file
#log         ${baseFilename}.LAMMPS_logFile

#(New) setup the force term by adding a group of random atoms with specific force (Constant force for simple case)
#create_atoms 1 random 100 127569 box
#group obstacle type 1
#fix 4 force_term setforce 3.0 0.0 0.0
#(/New)

# == Setup style of the run

# type of units to use in the simulation (units used are in fact: amu, nm, ns, Kelvins)
units       nano

# indicates possible types allowed for interactions between the atoms
atom_style  angle 

# indicates possible types allowed for bonds between the atoms 
# bond_style  hybrid harmonic

# indicates possible types allowed for bond angles between the atoms 
angle_style none

# indicates type of boundary conditions in each direction (p = periodic) 
boundary p p p 
read_data ${baseFilename}.LAMMPS_read_data # file of atomic coordinates and topology
velocity all zero linear                   # initialize all atomic velocities initially to zero


Sending commands to LAMMPs

# == Interactions 
pair_style none
atom_modify sort 1000 ${neighborSkinDist}          # setup sort data explicitly since no interactions to set this data. 

# == Setup neighbor list distance
comm_style tiled
comm_modify mode single cutoff 202.0 vel yes

neighbor ${neighborSkinDist} bin                    # first number gives a distance beyond the force cut-off ${neighborSkinDist}
neigh_modify every 1
atom_modify sort 0 ${neighborSkinDist}           # setup sort data explicitly since no interactions to set this data. 



# == Setup the SELM integrator
fix 1 all selm Main.SELM_params

# note langevin just computes forces, nve integrates the motions
#fix 1 all langevin 298.15 298.15 0.00001 48279
#fix 2 all nve



Sending commands to LAMMPs

# define groups

region 1 block INF INF INF -200 INF INF
group lower_y region 1
region 2 block INF -200 INF INF  INF INF
group lower_x region 2
region 3 block INF  INF INF  INF INF -200
group lower_z region 3
region 4 block INF INF 200 INF  INF INF
group upper_y region 4
region 5 block 200 INF INF INF  INF INF
group upper_x region 5
region 6 block INF  INF INF  INF 200 INF
group upper_z region 6

Sending commands to LAMMPs

# define groups

group boundary union lower_y lower_x lower_z upper_y upper_x upper_z
group flow subtract all boundary

delete_atoms region 7
fix 7 flow indent 10.0 sphere -10.147653565265784 -120.19748734673335 10.179740091106993 40
delete_atoms region 8
fix 8 flow indent 10.0 sphere -12.266859754118087 -128.83761475482976 -122.50741404411824 40
delete_atoms region 9
fix 9 flow indent 10.0 sphere -135.7419816581496 122.86143562184964 -150.2543466039866 40
delete_atoms region 10
fix 10 flow indent 10.0 sphere 1.7982766264782128 -133.67855250681814 9.604588122504424 40
delete_atoms region 11
fix 11 flow indent 10.0 sphere -10.977594307926097 136.24782998825515 39.63981003471076 40
delete_atoms region 12
fix 12 flow indent 10.0 sphere -82.60994127721517 -4.654832354667462 47.96339221074703 40
delete_atoms region 13
fix 13 flow indent 10.0 sphere -31.11841649574413 -48.25866891492166 94.67327995287152 40
delete_atoms region 14
fix 14 flow indent 10.0 sphere 159.52812886690378 152.40121075064394 -98.14138028573825 40
delete_atoms region 15
fix 15 flow indent 10.0 sphere 153.4114271496136 134.13933605649697 7.66989425778479 40
delete_atoms region 16
fix 16 flow indent 10.0 sphere 136.24285236211756 38.33068287347248 116.62037444145744 40
Sending commands to LAMMPs

##(New) fix spring 
fix 4 all spring tether 5.0 0.0 0.0 0.0 5.0

Sending commands to LAMMPs

group forcing type 3
Sending commands to LAMMPs

fix 5 forcing setforce 80.0 0.0 0.0
Sending commands to LAMMPs

info all out
Sending commands to LAMMPs

# == Setup output data write to disk
dump        dmp_vtk all vtk ${dumpfreq} ./vtk/Particles_*.vtp id type vx fx
dump_modify dmp_vtk pad 8 # ensures filenames file_000000.data

# == simulation time-stepping
timestep 6

# == Run the simulation
run      100 upto

# == Write restart data
write_restart ${baseFilename}.LAMMPS_restart_data
Done
