
# =========================================================================
# LAMMPS file for 'read_data' command                                      
# 
# Generated by selm python scripts by Paul J. Atzberger.
# 
# =========================================================================

# =========================================================================
# Description:
# -------------------------------------------------------------------------
# 
# SELM_Lagrangian = SELM_Lagrangian_LAMMPS_ATOM_ANGLE_STYLE
# LagrangianName = Points
# LagrangianTypeStr = LAMMPS_ATOM_ANGLE_STYLE
# 
# SELM_Eulerian   = SELM_Eulerian_LAMMPS_SHEAR_UNIFORM1_FFTW3
#
# atom_type = angle_type
#
# =========================================================================

# =========================================================================
# Header information:
# -------------------------------------------------------------------------
2664 atoms
0 bonds
0 angles

3 atom types
0 bond types
0 angle types
# =========================================================================

# =========================================================================
# Domain Size Specification:
# -------------------------------------------------------------------------
-202 202 xlo xhi
-202 202 ylo yhi
-202 202 zlo zhi
0.0 0.0 0.0 xy xz yz
# =========================================================================

# =========================================================================
# Mass Specification:
#
# Gives for each atom the following:
#    type-ID | mass
# -------------------------------------------------------------------------
# Atom Location Specification:
#
# Gives for atom angle_type the following:
#    atom-ID | molecule-ID | type-ID | x | y | z
# -------------------------------------------------------------------------
# Bond Specification:
#
# Gives for atom angle_type the following:
#    bond-ID | type-ID | atom1-ID | atom2-ID
# -------------------------------------------------------------------------
# Angle Specification:
#
# Gives for atom angle_type the following:
#    angle-ID | type-ID | atom1-ID | atom2-ID | atom3-ID
# -------------------------------------------------------------------------
# WARNING: atom-ID, type-ID, molecule-ID must be between 1 - N             
# -------------------------------------------------------------------------

Masses

1 1.1230000
2 1.1230000
3 1.1230000

Atoms

1 1 1 -100.0000000 0.0000000 0.0000000
2 1 1 100.0000000 0.0000000 0.0000000
3 2 2 -184.0909091 -184.0909091 -184.0909091
4 2 2 -184.0909091 -184.0909091 -147.2727273
5 2 2 -184.0909091 -184.0909091 -110.4545455
6 2 2 -184.0909091 -184.0909091 -73.6363636
7 2 2 -184.0909091 -184.0909091 -36.8181818
8 2 2 -184.0909091 -184.0909091 0.0000000
9 2 2 -184.0909091 -184.0909091 36.8181818
10 2 2 -184.0909091 -184.0909091 73.6363636
11 2 2 -184.0909091 -184.0909091 110.4545455
12 2 2 -184.0909091 -184.0909091 147.2727273
13 2 2 -184.0909091 -184.0909091 184.0909091
14 2 2 -147.2727273 -184.0909091 -184.0909091
15 2 2 -147.2727273 -184.0909091 -147.2727273
16 2 2 -147.2727273 -184.0909091 -110.4545455
17 2 2 -147.2727273 -184.0909091 -73.6363636
18 2 2 -147.2727273 -184.0909091 -36.8181818
19 2 2 -147.2727273 -184.0909091 0.0000000
20 2 2 -147.2727273 -184.0909091 36.8181818
21 2 2 -147.2727273 -184.0909091 73.6363636
22 2 2 -147.2727273 -184.0909091 110.4545455
23 2 2 -147.2727273 -184.0909091 147.2727273
24 2 2 -147.2727273 -184.0909091 184.0909091
25 2 2 -110.4545455 -184.0909091 -184.0909091
26 2 2 -110.4545455 -184.0909091 -147.2727273
27 2 2 -110.4545455 -184.0909091 -110.4545455
28 2 2 -110.4545455 -184.0909091 -73.6363636
29 2 2 -110.4545455 -184.0909091 -36.8181818
30 2 2 -110.4545455 -184.0909091 0.0000000
31 2 2 -110.4545455 -184.0909091 36.8181818
32 2 2 -110.4545455 -184.0909091 73.6363636
33 2 2 -110.4545455 -184.0909091 110.4545455
34 2 2 -110.4545455 -184.0909091 147.2727273
35 2 2 -110.4545455 -184.0909091 184.0909091
36 2 2 -73.6363636 -184.0909091 -184.0909091
37 2 2 -73.6363636 -184.0909091 -147.2727273
38 2 2 -73.6363636 -184.0909091 -110.4545455
39 2 2 -73.6363636 -184.0909091 -73.6363636
40 2 2 -73.6363636 -184.0909091 -36.8181818
41 2 2 -73.6363636 -184.0909091 0.0000000
42 2 2 -73.6363636 -184.0909091 36.8181818
43 2 2 -73.6363636 -184.0909091 73.6363636
44 2 2 -73.6363636 -184.0909091 110.4545455
45 2 2 -73.6363636 -184.0909091 147.2727273
46 2 2 -73.6363636 -184.0909091 184.0909091
47 2 2 -36.8181818 -184.0909091 -184.0909091
48 2 2 -36.8181818 -184.0909091 -147.2727273
49 2 2 -36.8181818 -184.0909091 -110.4545455
50 2 2 -36.8181818 -184.0909091 -73.6363636
51 2 2 -36.8181818 -184.0909091 -36.8181818
52 2 2 -36.8181818 -184.0909091 0.0000000
53 2 2 -36.8181818 -184.0909091 36.8181818
54 2 2 -36.8181818 -184.0909091 73.6363636
55 2 2 -36.8181818 -184.0909091 110.4545455
56 2 2 -36.8181818 -184.0909091 147.2727273
57 2 2 -36.8181818 -184.0909091 184.0909091
58 2 2 0.0000000 -184.0909091 -184.0909091
59 2 2 0.0000000 -184.0909091 -147.2727273
60 2 2 0.0000000 -184.0909091 -110.4545455
61 2 2 0.0000000 -184.0909091 -73.6363636
62 2 2 0.0000000 -184.0909091 -36.8181818
63 2 2 0.0000000 -184.0909091 0.0000000
64 2 2 0.0000000 -184.0909091 36.8181818
65 2 2 0.0000000 -184.0909091 73.6363636
66 2 2 0.0000000 -184.0909091 110.4545455
67 2 2 0.0000000 -184.0909091 147.2727273
68 2 2 0.0000000 -184.0909091 184.0909091
69 2 2 36.8181818 -184.0909091 -184.0909091
70 2 2 36.8181818 -184.0909091 -147.2727273
71 2 2 36.8181818 -184.0909091 -110.4545455
72 2 2 36.8181818 -184.0909091 -73.6363636
73 2 2 36.8181818 -184.0909091 -36.8181818
74 2 2 36.8181818 -184.0909091 0.0000000
75 2 2 36.8181818 -184.0909091 36.8181818
76 2 2 36.8181818 -184.0909091 73.6363636
77 2 2 36.8181818 -184.0909091 110.4545455
78 2 2 36.8181818 -184.0909091 147.2727273
79 2 2 36.8181818 -184.0909091 184.0909091
80 2 2 73.6363636 -184.0909091 -184.0909091
81 2 2 73.6363636 -184.0909091 -147.2727273
82 2 2 73.6363636 -184.0909091 -110.4545455
83 2 2 73.6363636 -184.0909091 -73.6363636
84 2 2 73.6363636 -184.0909091 -36.8181818
85 2 2 73.6363636 -184.0909091 0.0000000
86 2 2 73.6363636 -184.0909091 36.8181818
87 2 2 73.6363636 -184.0909091 73.6363636
88 2 2 73.6363636 -184.0909091 110.4545455
89 2 2 73.6363636 -184.0909091 147.2727273
90 2 2 73.6363636 -184.0909091 184.0909091
91 2 2 110.4545455 -184.0909091 -184.0909091
92 2 2 110.4545455 -184.0909091 -147.2727273
93 2 2 110.4545455 -184.0909091 -110.4545455
94 2 2 110.4545455 -184.0909091 -73.6363636
95 2 2 110.4545455 -184.0909091 -36.8181818
96 2 2 110.4545455 -184.0909091 0.0000000
97 2 2 110.4545455 -184.0909091 36.8181818
98 2 2 110.4545455 -184.0909091 73.6363636
99 2 2 110.4545455 -184.0909091 110.4545455
100 2 2 110.4545455 -184.0909091 147.2727273
101 2 2 110.4545455 -184.0909091 184.0909091
102 2 2 147.2727273 -184.0909091 -184.0909091
103 2 2 147.2727273 -184.0909091 -147.2727273
104 2 2 147.2727273 -184.0909091 -110.4545455
105 2 2 147.2727273 -184.0909091 -73.6363636
106 2 2 147.2727273 -184.0909091 -36.8181818
107 2 2 147.2727273 -184.0909091 0.0000000
108 2 2 147.2727273 -184.0909091 36.8181818
109 2 2 147.2727273 -184.0909091 73.6363636
110 2 2 147.2727273 -184.0909091 110.4545455
111 2 2 147.2727273 -184.0909091 147.2727273
112 2 2 147.2727273 -184.0909091 184.0909091
113 2 2 184.0909091 -184.0909091 -184.0909091
114 2 2 184.0909091 -184.0909091 -147.2727273
115 2 2 184.0909091 -184.0909091 -110.4545455
116 2 2 184.0909091 -184.0909091 -73.6363636
117 2 2 184.0909091 -184.0909091 -36.8181818
118 2 2 184.0909091 -184.0909091 0.0000000
119 2 2 184.0909091 -184.0909091 36.8181818
120 2 2 184.0909091 -184.0909091 73.6363636
121 2 2 184.0909091 -184.0909091 110.4545455
122 2 2 184.0909091 -184.0909091 147.2727273
123 2 2 184.0909091 -184.0909091 184.0909091
124 2 2 -184.0909091 -147.2727273 -184.0909091
125 2 2 -184.0909091 -147.2727273 -147.2727273
126 2 2 -184.0909091 -147.2727273 -110.4545455
127 2 2 -184.0909091 -147.2727273 -73.6363636
128 2 2 -184.0909091 -147.2727273 -36.8181818
129 2 2 -184.0909091 -147.2727273 0.0000000
130 2 2 -184.0909091 -147.2727273 36.8181818
131 2 2 -184.0909091 -147.2727273 73.6363636
132 2 2 -184.0909091 -147.2727273 110.4545455
133 2 2 -184.0909091 -147.2727273 147.2727273
134 2 2 -184.0909091 -147.2727273 184.0909091
135 2 2 -147.2727273 -147.2727273 -184.0909091
136 2 2 -147.2727273 -147.2727273 -147.2727273
137 2 2 -147.2727273 -147.2727273 -110.4545455
138 2 2 -147.2727273 -147.2727273 -73.6363636
139 2 2 -147.2727273 -147.2727273 -36.8181818
140 2 2 -147.2727273 -147.2727273 0.0000000
141 2 2 -147.2727273 -147.2727273 36.8181818
142 2 2 -147.2727273 -147.2727273 73.6363636
143 2 2 -147.2727273 -147.2727273 110.4545455
144 2 2 -147.2727273 -147.2727273 147.2727273
145 2 2 -147.2727273 -147.2727273 184.0909091
146 2 2 -110.4545455 -147.2727273 -184.0909091
147 2 2 -110.4545455 -147.2727273 -147.2727273
148 2 2 -110.4545455 -147.2727273 -110.4545455
149 2 2 -110.4545455 -147.2727273 -73.6363636
150 2 2 -110.4545455 -147.2727273 -36.8181818
151 2 2 -110.4545455 -147.2727273 0.0000000
152 2 2 -110.4545455 -147.2727273 36.8181818
153 2 2 -110.4545455 -147.2727273 73.6363636
154 2 2 -110.4545455 -147.2727273 110.4545455
155 2 2 -110.4545455 -147.2727273 147.2727273
156 2 2 -110.4545455 -147.2727273 184.0909091
157 2 2 -73.6363636 -147.2727273 -184.0909091
158 2 2 -73.6363636 -147.2727273 -147.2727273
159 2 2 -73.6363636 -147.2727273 -110.4545455
160 2 2 -73.6363636 -147.2727273 -73.6363636
161 2 2 -73.6363636 -147.2727273 -36.8181818
162 2 2 -73.6363636 -147.2727273 0.0000000
163 2 2 -73.6363636 -147.2727273 36.8181818
164 2 2 -73.6363636 -147.2727273 73.6363636
165 2 2 -73.6363636 -147.2727273 110.4545455
166 2 2 -73.6363636 -147.2727273 147.2727273
167 2 2 -73.6363636 -147.2727273 184.0909091
168 2 2 -36.8181818 -147.2727273 -184.0909091
169 2 2 -36.8181818 -147.2727273 -147.2727273
170 2 2 -36.8181818 -147.2727273 -110.4545455
171 2 2 -36.8181818 -147.2727273 -73.6363636
172 2 2 -36.8181818 -147.2727273 -36.8181818
173 2 2 -36.8181818 -147.2727273 0.0000000
174 2 2 -36.8181818 -147.2727273 36.8181818
175 2 2 -36.8181818 -147.2727273 73.6363636
176 2 2 -36.8181818 -147.2727273 110.4545455
177 2 2 -36.8181818 -147.2727273 147.2727273
178 2 2 -36.8181818 -147.2727273 184.0909091
179 2 2 0.0000000 -147.2727273 -184.0909091
180 2 2 0.0000000 -147.2727273 -147.2727273
181 2 2 0.0000000 -147.2727273 -110.4545455
182 2 2 0.0000000 -147.2727273 -73.6363636
183 2 2 0.0000000 -147.2727273 -36.8181818
184 2 2 0.0000000 -147.2727273 0.0000000
185 2 2 0.0000000 -147.2727273 36.8181818
186 2 2 0.0000000 -147.2727273 73.6363636
187 2 2 0.0000000 -147.2727273 110.4545455
188 2 2 0.0000000 -147.2727273 147.2727273
189 2 2 0.0000000 -147.2727273 184.0909091
190 2 2 36.8181818 -147.2727273 -184.0909091
191 2 2 36.8181818 -147.2727273 -147.2727273
192 2 2 36.8181818 -147.2727273 -110.4545455
193 2 2 36.8181818 -147.2727273 -73.6363636
194 2 2 36.8181818 -147.2727273 -36.8181818
195 2 2 36.8181818 -147.2727273 0.0000000
196 2 2 36.8181818 -147.2727273 36.8181818
197 2 2 36.8181818 -147.2727273 73.6363636
198 2 2 36.8181818 -147.2727273 110.4545455
199 2 2 36.8181818 -147.2727273 147.2727273
200 2 2 36.8181818 -147.2727273 184.0909091
201 2 2 73.6363636 -147.2727273 -184.0909091
202 2 2 73.6363636 -147.2727273 -147.2727273
203 2 2 73.6363636 -147.2727273 -110.4545455
204 2 2 73.6363636 -147.2727273 -73.6363636
205 2 2 73.6363636 -147.2727273 -36.8181818
206 2 2 73.6363636 -147.2727273 0.0000000
207 2 2 73.6363636 -147.2727273 36.8181818
208 2 2 73.6363636 -147.2727273 73.6363636
209 2 2 73.6363636 -147.2727273 110.4545455
210 2 2 73.6363636 -147.2727273 147.2727273
211 2 2 73.6363636 -147.2727273 184.0909091
212 2 2 110.4545455 -147.2727273 -184.0909091
213 2 2 110.4545455 -147.2727273 -147.2727273
214 2 2 110.4545455 -147.2727273 -110.4545455
215 2 2 110.4545455 -147.2727273 -73.6363636
216 2 2 110.4545455 -147.2727273 -36.8181818
217 2 2 110.4545455 -147.2727273 0.0000000
218 2 2 110.4545455 -147.2727273 36.8181818
219 2 2 110.4545455 -147.2727273 73.6363636
220 2 2 110.4545455 -147.2727273 110.4545455
221 2 2 110.4545455 -147.2727273 147.2727273
222 2 2 110.4545455 -147.2727273 184.0909091
223 2 2 147.2727273 -147.2727273 -184.0909091
224 2 2 147.2727273 -147.2727273 -147.2727273
225 2 2 147.2727273 -147.2727273 -110.4545455
226 2 2 147.2727273 -147.2727273 -73.6363636
227 2 2 147.2727273 -147.2727273 -36.8181818
228 2 2 147.2727273 -147.2727273 0.0000000
229 2 2 147.2727273 -147.2727273 36.8181818
230 2 2 147.2727273 -147.2727273 73.6363636
231 2 2 147.2727273 -147.2727273 110.4545455
232 2 2 147.2727273 -147.2727273 147.2727273
233 2 2 147.2727273 -147.2727273 184.0909091
234 2 2 184.0909091 -147.2727273 -184.0909091
235 2 2 184.0909091 -147.2727273 -147.2727273
236 2 2 184.0909091 -147.2727273 -110.4545455
237 2 2 184.0909091 -147.2727273 -73.6363636
238 2 2 184.0909091 -147.2727273 -36.8181818
239 2 2 184.0909091 -147.2727273 0.0000000
240 2 2 184.0909091 -147.2727273 36.8181818
241 2 2 184.0909091 -147.2727273 73.6363636
242 2 2 184.0909091 -147.2727273 110.4545455
243 2 2 184.0909091 -147.2727273 147.2727273
244 2 2 184.0909091 -147.2727273 184.0909091
245 2 2 -184.0909091 -110.4545455 -184.0909091
246 2 2 -184.0909091 -110.4545455 -147.2727273
247 2 2 -184.0909091 -110.4545455 -110.4545455
248 2 2 -184.0909091 -110.4545455 -73.6363636
249 2 2 -184.0909091 -110.4545455 -36.8181818
250 2 2 -184.0909091 -110.4545455 0.0000000
251 2 2 -184.0909091 -110.4545455 36.8181818
252 2 2 -184.0909091 -110.4545455 73.6363636
253 2 2 -184.0909091 -110.4545455 110.4545455
254 2 2 -184.0909091 -110.4545455 147.2727273
255 2 2 -184.0909091 -110.4545455 184.0909091
256 2 2 -147.2727273 -110.4545455 -184.0909091
257 2 2 -147.2727273 -110.4545455 -147.2727273
258 2 2 -147.2727273 -110.4545455 -110.4545455
259 2 2 -147.2727273 -110.4545455 -73.6363636
260 2 2 -147.2727273 -110.4545455 -36.8181818
261 2 2 -147.2727273 -110.4545455 0.0000000
262 2 2 -147.2727273 -110.4545455 36.8181818
263 2 2 -147.2727273 -110.4545455 73.6363636
264 2 2 -147.2727273 -110.4545455 110.4545455
265 2 2 -147.2727273 -110.4545455 147.2727273
266 2 2 -147.2727273 -110.4545455 184.0909091
267 2 2 -110.4545455 -110.4545455 -184.0909091
268 2 2 -110.4545455 -110.4545455 -147.2727273
269 2 2 -110.4545455 -110.4545455 -110.4545455
270 2 2 -110.4545455 -110.4545455 -73.6363636
271 2 2 -110.4545455 -110.4545455 -36.8181818
272 2 2 -110.4545455 -110.4545455 0.0000000
273 2 2 -110.4545455 -110.4545455 36.8181818
274 2 2 -110.4545455 -110.4545455 73.6363636
275 2 2 -110.4545455 -110.4545455 110.4545455
276 2 2 -110.4545455 -110.4545455 147.2727273
277 2 2 -110.4545455 -110.4545455 184.0909091
278 2 2 -73.6363636 -110.4545455 -184.0909091
279 2 2 -73.6363636 -110.4545455 -147.2727273
280 2 2 -73.6363636 -110.4545455 -110.4545455
281 2 2 -73.6363636 -110.4545455 -73.6363636
282 2 2 -73.6363636 -110.4545455 -36.8181818
283 2 2 -73.6363636 -110.4545455 0.0000000
284 2 2 -73.6363636 -110.4545455 36.8181818
285 2 2 -73.6363636 -110.4545455 73.6363636
286 2 2 -73.6363636 -110.4545455 110.4545455
287 2 2 -73.6363636 -110.4545455 147.2727273
288 2 2 -73.6363636 -110.4545455 184.0909091
289 2 2 -36.8181818 -110.4545455 -184.0909091
290 2 2 -36.8181818 -110.4545455 -147.2727273
291 2 2 -36.8181818 -110.4545455 -110.4545455
292 2 2 -36.8181818 -110.4545455 -73.6363636
293 2 2 -36.8181818 -110.4545455 -36.8181818
294 2 2 -36.8181818 -110.4545455 0.0000000
295 2 2 -36.8181818 -110.4545455 36.8181818
296 2 2 -36.8181818 -110.4545455 73.6363636
297 2 2 -36.8181818 -110.4545455 110.4545455
298 2 2 -36.8181818 -110.4545455 147.2727273
299 2 2 -36.8181818 -110.4545455 184.0909091
300 2 2 0.0000000 -110.4545455 -184.0909091
301 2 2 0.0000000 -110.4545455 -147.2727273
302 2 2 0.0000000 -110.4545455 -110.4545455
303 2 2 0.0000000 -110.4545455 -73.6363636
304 2 2 0.0000000 -110.4545455 -36.8181818
305 2 2 0.0000000 -110.4545455 0.0000000
306 2 2 0.0000000 -110.4545455 36.8181818
307 2 2 0.0000000 -110.4545455 73.6363636
308 2 2 0.0000000 -110.4545455 110.4545455
309 2 2 0.0000000 -110.4545455 147.2727273
310 2 2 0.0000000 -110.4545455 184.0909091
311 2 2 36.8181818 -110.4545455 -184.0909091
312 2 2 36.8181818 -110.4545455 -147.2727273
313 2 2 36.8181818 -110.4545455 -110.4545455
314 2 2 36.8181818 -110.4545455 -73.6363636
315 2 2 36.8181818 -110.4545455 -36.8181818
316 2 2 36.8181818 -110.4545455 0.0000000
317 2 2 36.8181818 -110.4545455 36.8181818
318 2 2 36.8181818 -110.4545455 73.6363636
319 2 2 36.8181818 -110.4545455 110.4545455
320 2 2 36.8181818 -110.4545455 147.2727273
321 2 2 36.8181818 -110.4545455 184.0909091
322 2 2 73.6363636 -110.4545455 -184.0909091
323 2 2 73.6363636 -110.4545455 -147.2727273
324 2 2 73.6363636 -110.4545455 -110.4545455
325 2 2 73.6363636 -110.4545455 -73.6363636
326 2 2 73.6363636 -110.4545455 -36.8181818
327 2 2 73.6363636 -110.4545455 0.0000000
328 2 2 73.6363636 -110.4545455 36.8181818
329 2 2 73.6363636 -110.4545455 73.6363636
330 2 2 73.6363636 -110.4545455 110.4545455
331 2 2 73.6363636 -110.4545455 147.2727273
332 2 2 73.6363636 -110.4545455 184.0909091
333 2 2 110.4545455 -110.4545455 -184.0909091
334 2 2 110.4545455 -110.4545455 -147.2727273
335 2 2 110.4545455 -110.4545455 -110.4545455
336 2 2 110.4545455 -110.4545455 -73.6363636
337 2 2 110.4545455 -110.4545455 -36.8181818
338 2 2 110.4545455 -110.4545455 0.0000000
339 2 2 110.4545455 -110.4545455 36.8181818
340 2 2 110.4545455 -110.4545455 73.6363636
341 2 2 110.4545455 -110.4545455 110.4545455
342 2 2 110.4545455 -110.4545455 147.2727273
343 2 2 110.4545455 -110.4545455 184.0909091
344 2 2 147.2727273 -110.4545455 -184.0909091
345 2 2 147.2727273 -110.4545455 -147.2727273
346 2 2 147.2727273 -110.4545455 -110.4545455
347 2 2 147.2727273 -110.4545455 -73.6363636
348 2 2 147.2727273 -110.4545455 -36.8181818
349 2 2 147.2727273 -110.4545455 0.0000000
350 2 2 147.2727273 -110.4545455 36.8181818
351 2 2 147.2727273 -110.4545455 73.6363636
352 2 2 147.2727273 -110.4545455 110.4545455
353 2 2 147.2727273 -110.4545455 147.2727273
354 2 2 147.2727273 -110.4545455 184.0909091
355 2 2 184.0909091 -110.4545455 -184.0909091
356 2 2 184.0909091 -110.4545455 -147.2727273
357 2 2 184.0909091 -110.4545455 -110.4545455
358 2 2 184.0909091 -110.4545455 -73.6363636
359 2 2 184.0909091 -110.4545455 -36.8181818
360 2 2 184.0909091 -110.4545455 0.0000000
361 2 2 184.0909091 -110.4545455 36.8181818
362 2 2 184.0909091 -110.4545455 73.6363636
363 2 2 184.0909091 -110.4545455 110.4545455
364 2 2 184.0909091 -110.4545455 147.2727273
365 2 2 184.0909091 -110.4545455 184.0909091
366 2 2 -184.0909091 -73.6363636 -184.0909091
367 2 2 -184.0909091 -73.6363636 -147.2727273
368 2 2 -184.0909091 -73.6363636 -110.4545455
369 2 2 -184.0909091 -73.6363636 -73.6363636
370 2 2 -184.0909091 -73.6363636 -36.8181818
371 2 2 -184.0909091 -73.6363636 0.0000000
372 2 2 -184.0909091 -73.6363636 36.8181818
373 2 2 -184.0909091 -73.6363636 73.6363636
374 2 2 -184.0909091 -73.6363636 110.4545455
375 2 2 -184.0909091 -73.6363636 147.2727273
376 2 2 -184.0909091 -73.6363636 184.0909091
377 2 2 -147.2727273 -73.6363636 -184.0909091
378 2 2 -147.2727273 -73.6363636 -147.2727273
379 2 2 -147.2727273 -73.6363636 -110.4545455
380 2 2 -147.2727273 -73.6363636 -73.6363636
381 2 2 -147.2727273 -73.6363636 -36.8181818
382 2 2 -147.2727273 -73.6363636 0.0000000
383 2 2 -147.2727273 -73.6363636 36.8181818
384 2 2 -147.2727273 -73.6363636 73.6363636
385 2 2 -147.2727273 -73.6363636 110.4545455
386 2 2 -147.2727273 -73.6363636 147.2727273
387 2 2 -147.2727273 -73.6363636 184.0909091
388 2 2 -110.4545455 -73.6363636 -184.0909091
389 2 2 -110.4545455 -73.6363636 -147.2727273
390 2 2 -110.4545455 -73.6363636 -110.4545455
391 2 2 -110.4545455 -73.6363636 -73.6363636
392 2 2 -110.4545455 -73.6363636 -36.8181818
393 2 2 -110.4545455 -73.6363636 0.0000000
394 2 2 -110.4545455 -73.6363636 36.8181818
395 2 2 -110.4545455 -73.6363636 73.6363636
396 2 2 -110.4545455 -73.6363636 110.4545455
397 2 2 -110.4545455 -73.6363636 147.2727273
398 2 2 -110.4545455 -73.6363636 184.0909091
399 2 2 -73.6363636 -73.6363636 -184.0909091
400 2 2 -73.6363636 -73.6363636 -147.2727273
401 2 2 -73.6363636 -73.6363636 -110.4545455
402 2 2 -73.6363636 -73.6363636 -73.6363636
403 2 2 -73.6363636 -73.6363636 -36.8181818
404 2 2 -73.6363636 -73.6363636 0.0000000
405 2 2 -73.6363636 -73.6363636 36.8181818
406 2 2 -73.6363636 -73.6363636 73.6363636
407 2 2 -73.6363636 -73.6363636 110.4545455
408 2 2 -73.6363636 -73.6363636 147.2727273
409 2 2 -73.6363636 -73.6363636 184.0909091
410 2 2 -36.8181818 -73.6363636 -184.0909091
411 2 2 -36.8181818 -73.6363636 -147.2727273
412 2 2 -36.8181818 -73.6363636 -110.4545455
413 2 2 -36.8181818 -73.6363636 -73.6363636
414 2 2 -36.8181818 -73.6363636 -36.8181818
415 2 2 -36.8181818 -73.6363636 0.0000000
416 2 2 -36.8181818 -73.6363636 36.8181818
417 2 2 -36.8181818 -73.6363636 73.6363636
418 2 2 -36.8181818 -73.6363636 110.4545455
419 2 2 -36.8181818 -73.6363636 147.2727273
420 2 2 -36.8181818 -73.6363636 184.0909091
421 2 2 0.0000000 -73.6363636 -184.0909091
422 2 2 0.0000000 -73.6363636 -147.2727273
423 2 2 0.0000000 -73.6363636 -110.4545455
424 2 2 0.0000000 -73.6363636 -73.6363636
425 2 2 0.0000000 -73.6363636 -36.8181818
426 2 2 0.0000000 -73.6363636 0.0000000
427 2 2 0.0000000 -73.6363636 36.8181818
428 2 2 0.0000000 -73.6363636 73.6363636
429 2 2 0.0000000 -73.6363636 110.4545455
430 2 2 0.0000000 -73.6363636 147.2727273
431 2 2 0.0000000 -73.6363636 184.0909091
432 2 2 36.8181818 -73.6363636 -184.0909091
433 2 2 36.8181818 -73.6363636 -147.2727273
434 2 2 36.8181818 -73.6363636 -110.4545455
435 2 2 36.8181818 -73.6363636 -73.6363636
436 2 2 36.8181818 -73.6363636 -36.8181818
437 2 2 36.8181818 -73.6363636 0.0000000
438 2 2 36.8181818 -73.6363636 36.8181818
439 2 2 36.8181818 -73.6363636 73.6363636
440 2 2 36.8181818 -73.6363636 110.4545455
441 2 2 36.8181818 -73.6363636 147.2727273
442 2 2 36.8181818 -73.6363636 184.0909091
443 2 2 73.6363636 -73.6363636 -184.0909091
444 2 2 73.6363636 -73.6363636 -147.2727273
445 2 2 73.6363636 -73.6363636 -110.4545455
446 2 2 73.6363636 -73.6363636 -73.6363636
447 2 2 73.6363636 -73.6363636 -36.8181818
448 2 2 73.6363636 -73.6363636 0.0000000
449 2 2 73.6363636 -73.6363636 36.8181818
450 2 2 73.6363636 -73.6363636 73.6363636
451 2 2 73.6363636 -73.6363636 110.4545455
452 2 2 73.6363636 -73.6363636 147.2727273
453 2 2 73.6363636 -73.6363636 184.0909091
454 2 2 110.4545455 -73.6363636 -184.0909091
455 2 2 110.4545455 -73.6363636 -147.2727273
456 2 2 110.4545455 -73.6363636 -110.4545455
457 2 2 110.4545455 -73.6363636 -73.6363636
458 2 2 110.4545455 -73.6363636 -36.8181818
459 2 2 110.4545455 -73.6363636 0.0000000
460 2 2 110.4545455 -73.6363636 36.8181818
461 2 2 110.4545455 -73.6363636 73.6363636
462 2 2 110.4545455 -73.6363636 110.4545455
463 2 2 110.4545455 -73.6363636 147.2727273
464 2 2 110.4545455 -73.6363636 184.0909091
465 2 2 147.2727273 -73.6363636 -184.0909091
466 2 2 147.2727273 -73.6363636 -147.2727273
467 2 2 147.2727273 -73.6363636 -110.4545455
468 2 2 147.2727273 -73.6363636 -73.6363636
469 2 2 147.2727273 -73.6363636 -36.8181818
470 2 2 147.2727273 -73.6363636 0.0000000
471 2 2 147.2727273 -73.6363636 36.8181818
472 2 2 147.2727273 -73.6363636 73.6363636
473 2 2 147.2727273 -73.6363636 110.4545455
474 2 2 147.2727273 -73.6363636 147.2727273
475 2 2 147.2727273 -73.6363636 184.0909091
476 2 2 184.0909091 -73.6363636 -184.0909091
477 2 2 184.0909091 -73.6363636 -147.2727273
478 2 2 184.0909091 -73.6363636 -110.4545455
479 2 2 184.0909091 -73.6363636 -73.6363636
480 2 2 184.0909091 -73.6363636 -36.8181818
481 2 2 184.0909091 -73.6363636 0.0000000
482 2 2 184.0909091 -73.6363636 36.8181818
483 2 2 184.0909091 -73.6363636 73.6363636
484 2 2 184.0909091 -73.6363636 110.4545455
485 2 2 184.0909091 -73.6363636 147.2727273
486 2 2 184.0909091 -73.6363636 184.0909091
487 2 2 -184.0909091 -36.8181818 -184.0909091
488 2 2 -184.0909091 -36.8181818 -147.2727273
489 2 2 -184.0909091 -36.8181818 -110.4545455
490 2 2 -184.0909091 -36.8181818 -73.6363636
491 2 2 -184.0909091 -36.8181818 -36.8181818
492 2 2 -184.0909091 -36.8181818 0.0000000
493 2 2 -184.0909091 -36.8181818 36.8181818
494 2 2 -184.0909091 -36.8181818 73.6363636
495 2 2 -184.0909091 -36.8181818 110.4545455
496 2 2 -184.0909091 -36.8181818 147.2727273
497 2 2 -184.0909091 -36.8181818 184.0909091
498 2 2 -147.2727273 -36.8181818 -184.0909091
499 2 2 -147.2727273 -36.8181818 -147.2727273
500 2 2 -147.2727273 -36.8181818 -110.4545455
501 2 2 -147.2727273 -36.8181818 -73.6363636
502 2 2 -147.2727273 -36.8181818 -36.8181818
503 2 2 -147.2727273 -36.8181818 0.0000000
504 2 2 -147.2727273 -36.8181818 36.8181818
505 2 2 -147.2727273 -36.8181818 73.6363636
506 2 2 -147.2727273 -36.8181818 110.4545455
507 2 2 -147.2727273 -36.8181818 147.2727273
508 2 2 -147.2727273 -36.8181818 184.0909091
509 2 2 -110.4545455 -36.8181818 -184.0909091
510 2 2 -110.4545455 -36.8181818 -147.2727273
511 2 2 -110.4545455 -36.8181818 -110.4545455
512 2 2 -110.4545455 -36.8181818 -73.6363636
513 2 2 -110.4545455 -36.8181818 -36.8181818
514 2 2 -110.4545455 -36.8181818 0.0000000
515 2 2 -110.4545455 -36.8181818 36.8181818
516 2 2 -110.4545455 -36.8181818 73.6363636
517 2 2 -110.4545455 -36.8181818 110.4545455
518 2 2 -110.4545455 -36.8181818 147.2727273
519 2 2 -110.4545455 -36.8181818 184.0909091
520 2 2 -73.6363636 -36.8181818 -184.0909091
521 2 2 -73.6363636 -36.8181818 -147.2727273
522 2 2 -73.6363636 -36.8181818 -110.4545455
523 2 2 -73.6363636 -36.8181818 -73.6363636
524 2 2 -73.6363636 -36.8181818 -36.8181818
525 2 2 -73.6363636 -36.8181818 0.0000000
526 2 2 -73.6363636 -36.8181818 36.8181818
527 2 2 -73.6363636 -36.8181818 73.6363636
528 2 2 -73.6363636 -36.8181818 110.4545455
529 2 2 -73.6363636 -36.8181818 147.2727273
530 2 2 -73.6363636 -36.8181818 184.0909091
531 2 2 -36.8181818 -36.8181818 -184.0909091
532 2 2 -36.8181818 -36.8181818 -147.2727273
533 2 2 -36.8181818 -36.8181818 -110.4545455
534 2 2 -36.8181818 -36.8181818 -73.6363636
535 2 2 -36.8181818 -36.8181818 -36.8181818
536 2 2 -36.8181818 -36.8181818 0.0000000
537 2 2 -36.8181818 -36.8181818 36.8181818
538 2 2 -36.8181818 -36.8181818 73.6363636
539 2 2 -36.8181818 -36.8181818 110.4545455
540 2 2 -36.8181818 -36.8181818 147.2727273
541 2 2 -36.8181818 -36.8181818 184.0909091
542 2 2 0.0000000 -36.8181818 -184.0909091
543 2 2 0.0000000 -36.8181818 -147.2727273
544 2 2 0.0000000 -36.8181818 -110.4545455
545 2 2 0.0000000 -36.8181818 -73.6363636
546 2 2 0.0000000 -36.8181818 -36.8181818
547 2 2 0.0000000 -36.8181818 0.0000000
548 2 2 0.0000000 -36.8181818 36.8181818
549 2 2 0.0000000 -36.8181818 73.6363636
550 2 2 0.0000000 -36.8181818 110.4545455
551 2 2 0.0000000 -36.8181818 147.2727273
552 2 2 0.0000000 -36.8181818 184.0909091
553 2 2 36.8181818 -36.8181818 -184.0909091
554 2 2 36.8181818 -36.8181818 -147.2727273
555 2 2 36.8181818 -36.8181818 -110.4545455
556 2 2 36.8181818 -36.8181818 -73.6363636
557 2 2 36.8181818 -36.8181818 -36.8181818
558 2 2 36.8181818 -36.8181818 0.0000000
559 2 2 36.8181818 -36.8181818 36.8181818
560 2 2 36.8181818 -36.8181818 73.6363636
561 2 2 36.8181818 -36.8181818 110.4545455
562 2 2 36.8181818 -36.8181818 147.2727273
563 2 2 36.8181818 -36.8181818 184.0909091
564 2 2 73.6363636 -36.8181818 -184.0909091
565 2 2 73.6363636 -36.8181818 -147.2727273
566 2 2 73.6363636 -36.8181818 -110.4545455
567 2 2 73.6363636 -36.8181818 -73.6363636
568 2 2 73.6363636 -36.8181818 -36.8181818
569 2 2 73.6363636 -36.8181818 0.0000000
570 2 2 73.6363636 -36.8181818 36.8181818
571 2 2 73.6363636 -36.8181818 73.6363636
572 2 2 73.6363636 -36.8181818 110.4545455
573 2 2 73.6363636 -36.8181818 147.2727273
574 2 2 73.6363636 -36.8181818 184.0909091
575 2 2 110.4545455 -36.8181818 -184.0909091
576 2 2 110.4545455 -36.8181818 -147.2727273
577 2 2 110.4545455 -36.8181818 -110.4545455
578 2 2 110.4545455 -36.8181818 -73.6363636
579 2 2 110.4545455 -36.8181818 -36.8181818
580 2 2 110.4545455 -36.8181818 0.0000000
581 2 2 110.4545455 -36.8181818 36.8181818
582 2 2 110.4545455 -36.8181818 73.6363636
583 2 2 110.4545455 -36.8181818 110.4545455
584 2 2 110.4545455 -36.8181818 147.2727273
585 2 2 110.4545455 -36.8181818 184.0909091
586 2 2 147.2727273 -36.8181818 -184.0909091
587 2 2 147.2727273 -36.8181818 -147.2727273
588 2 2 147.2727273 -36.8181818 -110.4545455
589 2 2 147.2727273 -36.8181818 -73.6363636
590 2 2 147.2727273 -36.8181818 -36.8181818
591 2 2 147.2727273 -36.8181818 0.0000000
592 2 2 147.2727273 -36.8181818 36.8181818
593 2 2 147.2727273 -36.8181818 73.6363636
594 2 2 147.2727273 -36.8181818 110.4545455
595 2 2 147.2727273 -36.8181818 147.2727273
596 2 2 147.2727273 -36.8181818 184.0909091
597 2 2 184.0909091 -36.8181818 -184.0909091
598 2 2 184.0909091 -36.8181818 -147.2727273
599 2 2 184.0909091 -36.8181818 -110.4545455
600 2 2 184.0909091 -36.8181818 -73.6363636
601 2 2 184.0909091 -36.8181818 -36.8181818
602 2 2 184.0909091 -36.8181818 0.0000000
603 2 2 184.0909091 -36.8181818 36.8181818
604 2 2 184.0909091 -36.8181818 73.6363636
605 2 2 184.0909091 -36.8181818 110.4545455
606 2 2 184.0909091 -36.8181818 147.2727273
607 2 2 184.0909091 -36.8181818 184.0909091
608 2 2 -184.0909091 0.0000000 -184.0909091
609 2 2 -184.0909091 0.0000000 -147.2727273
610 2 2 -184.0909091 0.0000000 -110.4545455
611 2 2 -184.0909091 0.0000000 -73.6363636
612 2 2 -184.0909091 0.0000000 -36.8181818
613 2 2 -184.0909091 0.0000000 0.0000000
614 2 2 -184.0909091 0.0000000 36.8181818
615 2 2 -184.0909091 0.0000000 73.6363636
616 2 2 -184.0909091 0.0000000 110.4545455
617 2 2 -184.0909091 0.0000000 147.2727273
618 2 2 -184.0909091 0.0000000 184.0909091
619 2 2 -147.2727273 0.0000000 -184.0909091
620 2 2 -147.2727273 0.0000000 -147.2727273
621 2 2 -147.2727273 0.0000000 -110.4545455
622 2 2 -147.2727273 0.0000000 -73.6363636
623 2 2 -147.2727273 0.0000000 -36.8181818