
# =========================================================================
# LAMMPS file for 'read_data' command                                      
# 
# Generated by selm python scripts by Paul J. Atzberger.
# 
# =========================================================================

# =========================================================================
# Description:
# -------------------------------------------------------------------------
# 
# SELM_Lagrangian = SELM_Lagrangian_LAMMPS_ATOM_ANGLE_STYLE
# LagrangianName = Points
# LagrangianTypeStr = LAMMPS_ATOM_ANGLE_STYLE
# 
# SELM_Eulerian   = SELM_Eulerian_LAMMPS_SHEAR_UNIFORM1_FFTW3
#
# atom_type = angle_type
#
# =========================================================================

# =========================================================================
# Header information:
# -------------------------------------------------------------------------
121 atoms
0 bonds
0 angles

1 atom types
0 bond types
0 angle types
# =========================================================================

# =========================================================================
# Domain Size Specification:
# -------------------------------------------------------------------------
-202 202 xlo xhi
-202 202 ylo yhi
-202 202 zlo zhi
0.0 0.0 0.0 xy xz yz
# =========================================================================

# =========================================================================
# Mass Specification:
#
# Gives for each atom the following:
#    type-ID | mass
# -------------------------------------------------------------------------
# Atom Location Specification:
#
# Gives for atom angle_type the following:
#    atom-ID | molecule-ID | type-ID | x | y | z
# -------------------------------------------------------------------------
# Bond Specification:
#
# Gives for atom angle_type the following:
#    bond-ID | type-ID | atom1-ID | atom2-ID
# -------------------------------------------------------------------------
# Angle Specification:
#
# Gives for atom angle_type the following:
#    angle-ID | type-ID | atom1-ID | atom2-ID | atom3-ID
# -------------------------------------------------------------------------
# WARNING: atom-ID, type-ID, molecule-ID must be between 1 - N             
# -------------------------------------------------------------------------

Masses

1 1.1230000

Atoms

1 1 1 -200.0000000 -200.0000000 0.0000000
2 1 1 -160.0000000 -160.0000000 0.0000000
3 1 1 -120.0000000 -120.0000000 0.0000000
4 1 1 -80.0000000 -80.0000000 0.0000000
5 1 1 -40.0000000 -40.0000000 0.0000000
6 1 1 0.0000000 0.0000000 0.0000000
7 1 1 40.0000000 40.0000000 0.0000000
8 1 1 80.0000000 80.0000000 0.0000000
9 1 1 120.0000000 120.0000000 0.0000000
10 1 1 160.0000000 160.0000000 0.0000000
11 1 1 200.0000000 200.0000000 0.0000000
12 1 1 -200.0000000 -200.0000000 0.0000000
13 1 1 -160.0000000 -160.0000000 0.0000000
14 1 1 -120.0000000 -120.0000000 0.0000000
15 1 1 -80.0000000 -80.0000000 0.0000000
16 1 1 -40.0000000 -40.0000000 0.0000000
17 1 1 0.0000000 0.0000000 0.0000000
18 1 1 40.0000000 40.0000000 0.0000000
19 1 1 80.0000000 80.0000000 0.0000000
20 1 1 120.0000000 120.0000000 0.0000000
21 1 1 160.0000000 160.0000000 0.0000000
22 1 1 200.0000000 200.0000000 0.0000000
23 1 1 -200.0000000 -200.0000000 0.0000000
24 1 1 -160.0000000 -160.0000000 0.0000000
25 1 1 -120.0000000 -120.0000000 0.0000000
26 1 1 -80.0000000 -80.0000000 0.0000000
27 1 1 -40.0000000 -40.0000000 0.0000000
28 1 1 0.0000000 0.0000000 0.0000000
29 1 1 40.0000000 40.0000000 0.0000000
30 1 1 80.0000000 80.0000000 0.0000000
31 1 1 120.0000000 120.0000000 0.0000000
32 1 1 160.0000000 160.0000000 0.0000000
33 1 1 200.0000000 200.0000000 0.0000000
34 1 1 -200.0000000 -200.0000000 0.0000000
35 1 1 -160.0000000 -160.0000000 0.0000000
36 1 1 -120.0000000 -120.0000000 0.0000000
37 1 1 -80.0000000 -80.0000000 0.0000000
38 1 1 -40.0000000 -40.0000000 0.0000000
39 1 1 0.0000000 0.0000000 0.0000000
40 1 1 40.0000000 40.0000000 0.0000000
41 1 1 80.0000000 80.0000000 0.0000000
42 1 1 120.0000000 120.0000000 0.0000000
43 1 1 160.0000000 160.0000000 0.0000000
44 1 1 200.0000000 200.0000000 0.0000000
45 1 1 -200.0000000 -200.0000000 0.0000000
46 1 1 -160.0000000 -160.0000000 0.0000000
47 1 1 -120.0000000 -120.0000000 0.0000000
48 1 1 -80.0000000 -80.0000000 0.0000000
49 1 1 -40.0000000 -40.0000000 0.0000000
50 1 1 0.0000000 0.0000000 0.0000000
51 1 1 40.0000000 40.0000000 0.0000000
52 1 1 80.0000000 80.0000000 0.0000000
53 1 1 120.0000000 120.0000000 0.0000000
54 1 1 160.0000000 160.0000000 0.0000000
55 1 1 200.0000000 200.0000000 0.0000000
56 1 1 -200.0000000 -200.0000000 0.0000000
57 1 1 -160.0000000 -160.0000000 0.0000000
58 1 1 -120.0000000 -120.0000000 0.0000000
59 1 1 -80.0000000 -80.0000000 0.0000000
60 1 1 -40.0000000 -40.0000000 0.0000000
61 1 1 0.0000000 0.0000000 0.0000000
62 1 1 40.0000000 40.0000000 0.0000000
63 1 1 80.0000000 80.0000000 0.0000000
64 1 1 120.0000000 120.0000000 0.0000000
65 1 1 160.0000000 160.0000000 0.0000000
66 1 1 200.0000000 200.0000000 0.0000000
67 1 1 -200.0000000 -200.0000000 0.0000000
68 1 1 -160.0000000 -160.0000000 0.0000000
69 1 1 -120.0000000 -120.0000000 0.0000000
70 1 1 -80.0000000 -80.0000000 0.0000000
71 1 1 -40.0000000 -40.0000000 0.0000000
72 1 1 0.0000000 0.0000000 0.0000000
73 1 1 40.0000000 40.0000000 0.0000000
74 1 1 80.0000000 80.0000000 0.0000000
75 1 1 120.0000000 120.0000000 0.0000000
76 1 1 160.0000000 160.0000000 0.0000000
77 1 1 200.0000000 200.0000000 0.0000000
78 1 1 -200.0000000 -200.0000000 0.0000000
79 1 1 -160.0000000 -160.0000000 0.0000000
80 1 1 -120.0000000 -120.0000000 0.0000000
81 1 1 -80.0000000 -80.0000000 0.0000000
82 1 1 -40.0000000 -40.0000000 0.0000000
83 1 1 0.0000000 0.0000000 0.0000000
84 1 1 40.0000000 40.0000000 0.0000000
85 1 1 80.0000000 80.0000000 0.0000000
86 1 1 120.0000000 120.0000000 0.0000000
87 1 1 160.0000000 160.0000000 0.0000000
88 1 1 200.0000000 200.0000000 0.0000000
89 1 1 -200.0000000 -200.0000000 0.0000000
90 1 1 -160.0000000 -160.0000000 0.0000000
91 1 1 -120.0000000 -120.0000000 0.0000000
92 1 1 -80.0000000 -80.0000000 0.0000000
93 1 1 -40.0000000 -40.0000000 0.0000000
94 1 1 0.0000000 0.0000000 0.0000000
95 1 1 40.0000000 40.0000000 0.0000000
96 1 1 80.0000000 80.0000000 0.0000000
97 1 1 120.0000000 120.0000000 0.0000000
98 1 1 160.0000000 160.0000000 0.0000000
99 1 1 200.0000000 200.0000000 0.0000000
100 1 1 -200.0000000 -200.0000000 0.0000000
101 1 1 -160.0000000 -160.0000000 0.0000000
102 1 1 -120.0000000 -120.0000000 0.0000000
103 1 1 -80.0000000 -80.0000000 0.0000000
104 1 1 -40.0000000 -40.0000000 0.0000000
105 1 1 0.0000000 0.0000000 0.0000000
106 1 1 40.0000000 40.0000000 0.0000000
107 1 1 80.0000000 80.0000000 0.0000000
108 1 1 120.0000000 120.0000000 0.0000000
109 1 1 160.0000000 160.0000000 0.0000000
110 1 1 200.0000000 200.0000000 0.0000000
111 1 1 -200.0000000 -200.0000000 0.0000000
112 1 1 -160.0000000 -160.0000000 0.0000000
113 1 1 -120.0000000 -120.0000000 0.0000000
114 1 1 -80.0000000 -80.0000000 0.0000000
115 1 1 -40.0000000 -40.0000000 0.0000000
116 1 1 0.0000000 0.0000000 0.0000000
117 1 1 40.0000000 40.0000000 0.0000000
118 1 1 80.0000000 80.0000000 0.0000000
119 1 1 120.0000000 120.0000000 0.0000000
120 1 1 160.0000000 160.0000000 0.0000000
121 1 1 200.0000000 200.0000000 0.0000000
