<?xml version="1.0"?>
<VTKFile type="PolyData" version="0.1" byte_order="LittleEndian" header_type="UInt32" compressor="vtkZLibDataCompressor">
  <PolyData>
    <Piece NumberOfPoints="2439" NumberOfVerts="2439" NumberOfLines="0" NumberOfStrips="0" NumberOfPolys="0">
      <PointData>
        <DataArray type="Int32" Name="id" format="ascii" RangeMin="1" RangeMax="2664">
          1 2608 3 4 5 6
          7 8 9 10 11 12
          13 14 15 16 17 18
          19 20 21 22 23 24
          2538 26 27 28 29 30
          31 32 33 34 35 2537
          2536 38 39 40 41 42
          43 44 45 46 2535 2534
          49 50 51 52 53 54
          55 56 2533 58 2532 60
          61 62 63 64 65 66
          67 2531 69 2530 71 72
          73 74 75 76 77 78
          2529 80 81 82 83 84
          85 86 87 88 89 90
          91 92 93 94 95 96
          97 98 99 100 101 102
          103 2528 105 106 107 108
          109 110 2527 112 113 114
          115 116 117 118 119 120
          121 122 123 124 125 126
          127 128 129 130 131 132
          133 134 135 136 137 138
          139 140 141 142 143 144
          145 146 147 148 149 150
          151 152 153 154 155 156
          157 158 159 160 161 162
          163 164 165 166 167 168
          169 170 171 172 173 174
          175 176 177 178 2526 180
          181 182 183 184 185 186
          187 188 189 2525 2524 192
          193 194 195 196 197 198
          199 200 2523 2522 203 204
          205 206 207 208 209 210
          2521 212 2520 214 215 216
          217 218 219 220 221 2519
          223 224 225 226 227 228
          229 230 231 232 233 234
          235 236 237 238 239 240
          241 242 243 244 2518 246
          247 248 249 250 251 252
          253 254 255 256 257 258
          259 260 261 262 263 264
          265 266 267 2517 269 270
          271 272 273 274 275 276
          277 278 279 280 281 282
          283 284 285 286 287 288
          289 290 291 292 293 294
          295 296 297 298 299 300
          301 302 303 304 305 306
          307 308 309 310 311 312
          313 314 315 316 317 318
          319 320 321 322 323 324
          325 326 327 328 329 330
          331 332 333 334 335 336
          337 338 339 340 341 342
          343 344 345 346 347 348
          349 350 351 352 353 354
          2516 356 357 358 359 360
          361 362 363 364 365 366
          367 368 369 370 371 372
          373 374 375 376 377 378
          379 380 381 2515 383 384
          385 386 387 388 389 390
          391 392 393 2514 395 396
          397 398 399 400 401 402
          403 404 405 406 407 408
          409 410 411 412 413 2547
          415 2546 417 418 419 420
          421 422 423 424 425 426
          2555 428 429 430 431 432
          433 434 435 2513 437 2545
          439 440 441 442 443 444
          445 446 447 2544 449 450
          451 452 453 454 455 456
          457 458 459 460 461 462
          463 464 465 466 467 468
          469 470 471 472 473 474
          475 476 477 478 479 480
          481 482 483 484 485 486
          487 488 489 490 491 492
          493 2512 495 496 497 498
          499 500 501 502 2511 504
          505 506 507 508 509 510
          511 512 513 514 515 516
          517 518 519 520 521 522
          2510 524 525 526 527 528
          529 530 531 532 533 2543
          535 2664 537 538 539 540
          541 542 543 544 545 2663
          2662 2661 2542 550 551 552
          553 554 555 556 2660 2659
          2658 560 561 562 563 564
          565 566 567 568 2607 570
          571 572 573 574 575 576
          577 578 2606 2605 2604 582
          583 584 585 586 587 588
          589 2603 2602 2601 2509 594
          595 596 597 598 599 600
          601 602 2508 2507 605 606
          607 608 609 610 611 612
          613 614 615 616 617 618
          619 620 621 622 2506 624
          625 626 627 628 629 630
          631 632 633 634 635 636
          637 638 639 640 641 642
          643 644 645 646 647 648
          649 650 651 652 653 654
          655 2657 2656 2655 2541 2505
          661 662 663 664 665 666
          2654 2653 2652 670 671 2504
          673 674 675 676 677 2651
          2650 2649 681 682 2503 684
          685 686 687 688 2600 2648
          2599 2554 693 694 695 696
          697 698 699 2598 2597 2596
          2553 704 705 706 707 708
          709 710 2595 2594 2593 714
          715 716 717 718 719 720
          721 722 2592 2552 725 726
          727 728 729 730 731 732
          733 734 735 736 737 738
          739 740 741 742 2502 744
          745 746 747 748 749 750
          751 752 753 2501 755 756
          757 758 759 760 761 762
          763 764 765 766 767 768
          769 770 771 772 773 774
          775 776 2647 2646 2645 780
          781 782 783 784 785 786
          2551 2644 2643 2642 791 792
          793 794 795 796 797 798
          2641 2640 2639 802 803 804
          805 806 807 808 809 2591
          2590 2500 813 814 815 816
          817 818 819 820 2499 2587
          2586 824 825 826 827 828
          829 830 831 2585 2584 2583
          835 836 837 838 839 840
          841 842 843 2550 845 846
          847 848 849 850 851 852
          853 854 855 856 857 858
          859 860 861 862 863 864
          865 866 2498 868 869 870
          871 872 873 874 875 876
          877 878 879 880 881 882
          883 884 885 886 887 2540
          889 890 891 892 893 894
          895 896 897 898 899 900
          901 902 903 904 905 906
          907 908 2549 2497 2496 912
          913 914 915 916 917 918
          919 920 2495 2494 923 924
          925 926 927 928 929 930
          931 932 933 934 935 936
          937 938 939 940 941 942
          2582 2539 945 946 947 948
          949 950 951 952 2493 2548
          955 956 957 958 959 960
          961 962 963 964 965 966
          967 968 969 970 971 972
          973 974 975 976 977 978
          979 980 981 982 983 984
          985 986 987 988 989 990
          991 992 993 994 995 996
          997 998 999 1000 1001 1002
          1003 1004 1005 1006 1007 1008
          1009 1010 1011 1012 1013 1014
          1015 1016 1017 1018 1019 1020
          1021 1022 1023 1024 1025 1026
          1027 1028 1029 1030 1031 1032
          1033 1034 1035 1036 1037 1038
          1039 1040 1041 1042 1043 1044
          1045 1046 1047 1048 1049 1050
          1051 1052 1053 1054 1055 1056
          1057 1058 1059 1060 1061 1062
          1063 1064 1065 1066 1067 1068
          1069 1070 1071 1072 1073 1074
          1075 1076 1077 1078 1079 1080
          1081 1082 1083 1084 1085 1086
          1087 1088 1089 1090 1091 1092
          1093 1094 1095 1096 1097 1098
          1099 1100 1101 1102 1103 1104
          1105 1106 1107 1108 1109 1110
          1111 1112 1113 1114 1115 1116
          1117 1118 1119 1120 1121 1122
          1123 1124 1125 1126 1127 1128
          1129 1130 1131 1132 1133 1134
          1135 1136 1137 1138 1139 1140
          1141 1142 1143 1144 1145 1146
          1147 1148 1149 1150 1151 1152
          1153 1154 1155 1156 1157 1158
          1159 1160 1161 1162 1163 1164
          1165 1166 1167 1168 1169 1170
          1171 1172 1173 1174 1175 1176
          1177 1178 1179 1180 1181 1182
          1183 1184 1185 1186 1187 1188
          1189 1190 1191 1192 1193 1194
          1195 1196 1197 1198 1199 1200
          1201 1202 1203 1204 1205 1206
          1207 1208 1209 1210 1211 1212
          1213 1214 1215 1216 1217 1218
          1219 1220 1221 1222 1223 1224
          1225 1226 1227 1228 1229 1230
          1231 1232 1233 1234 1235 1236
          1237 1238 1239 1240 1241 1242
          1243 1244 1245 1246 1247 1248
          1249 1250 1251 1252 1253 1254
          1255 1256 2492 1258 1259 1260
          1261 1262 1263 1264 1265 1266
          1267 2491 2490 1270 1271 1272
          1273 1274 1275 1276 1277 1278
          1279 2489 1281 1282 1283 1284
          1285 1286 1287 1288 2488 1290
          1291 1292 1293 1294 1295 1296
          1297 1298 1299 2487 1301 1302
          1303 1304 1305 1306 1307 1308
          1309 1310 1311 1312 1313 1314
          1315 1316 1317 1318 1319 1320
          1321 1322 1323 1324 1325 1326
          1327 1328 1329 1330 1331 1332
          1333 2486 2485 1336 1337 1338
          1339 1340 1341 1342 1343 1344
          2484 2483 1347 1348 1349 1350
          1351 1352 1353 1354 1355 2482
          2481 1358 1359 1360 1361 1362
          1363 1364 1365 1366 1367 2480
          1369 1370 1371 1372 1373 1374
          1375 1376 2479 1378 1379 1380
          1381 1382 1383 1384 1385 1386
          1387 2478 1389 1390 2477 1392
          1393 1394 1395 1396 1397 1398
          1399 1400 1401 2476 1403 1404
          1405 1406 1407 1408 1409 1410
          1411 1412 1413 1414 1415 1416
          1417 1418 1419 1420 1421 1422
          1423 1424 1425 1426 1427 1428
          1429 1430 2475 1432 1433 1434
          1435 1436 1437 1438 1439 1440
          1441 1442 1443 2474 1445 1446
          1447 1448 1449 1450 1451 1452
          1453 1454 1455 1456 1457 1458
          1459 1460 1461 1462 1463 1464
          1465 2473 1467 1468 1469 1470
          1471 1472 1473 1474 1475 1476
          2472 2471 1479 1480 1481 1482
          1483 1484 1485 1486 1487 2470
          2469 1490 1491 1492 1493 1494
          1495 1496 1497 1498 2468 2467
          1501 1502 1503 1504 1505 1506
          1507 1508 2466 1510 1511 1512
          1513 1514 1515 1516 1517 1518
          1519 2465 1521 1522 1523 1524
          1525 1526 1527 1528 1529 1530
          2464 1532 1533 2463 1535 1536
          1537 1538 1539 1540 1541 1542
          1543 1544 2462 1546 1547 1548
          1549 1550 1551 1552 1553 1554
          1555 1556 1557 1558 1559 1560
          1561 1562 1563 1564 1565 1566
          1567 1568 1569 1570 1571 1572
          1573 1574 1575 1576 1577 1578
          1579 1580 1581 1582 1583 1584
          1585 1586 1587 1588 1589 1590
          1591 1592 1593 1594 1595 1596
          1597 1598 1599 2461 1601 1602
          1603 1604 1605 1606 1607 1608
          1609 1610 1611 1612 1613 1614
          1615 1616 1617 1618 1619 1620
          1621 1622 1623 1624 1625 1626
          1627 1628 1629 1630 1631 1632
          1633 1634 1635 1636 1637 1638
          1639 1640 1641 1642 1643 1644
          1645 1646 1647 1648 1649 1650
          1651 1652 2460 1654 1655 1656
          1657 1658 1659 1660 1661 1662
          1663 2459 2458 1666 1667 1668
          1669 1670 1671 1672 1673 1674
          1675 2457 1677 1678 1679 1680
          1681 1682 1683 1684 1685 1686
          1687 1688 1689 1690 1691 1692
          1693 1694 1695 1696 1697 1698
          1699 1700 1701 1702 1703 1704
          1705 1706 1707 1708 1709 1710
          1711 1712 1713 1714 1715 1716
          1717 1718 1719 1720 1721 1722
          1723 1724 1725 1726 1727 1728
          1729 1730 1731 1732 1733 1734
          1735 2456 1737 1738 1739 1740
          1741 1742 1743 1744 1745 1746
          1747 1748 1749 1750 1751 1752
          1753 1754 1755 1756 1757 1758
          1759 1760 1761 1762 1763 1764
          1765 1766 1767 2455 1769 1770
          1771 1772 1773 1774 1775 1776
          1777 1778 1779 1780 1781 1782
          1783 1784 1785 1786 1787 1788
          1789 1790 1791 1792 1793 1794
          1795 1796 1797 1798 1799 1800
          1801 1802 1803 1804 1805 1806
          1807 1808 1809 1810 1811 1812
          1813 1814 1815 1816 1817 1818
          1819 1820 1821 1822 1823 1824
          1825 1826 1827 1828 1829 1830
          1831 1832 1833 1834 1835 1836
          1837 1838 1839 1840 1841 1842
          1843 1844 1845 1846 1847 1848
          1849 1850 1851 1852 1853 1854
          1855 1856 1857 1858 1859 1860
          1861 1862 1863 1864 1865 1866
          1867 1868 1869 1870 1871 1872
          1873 1874 1875 1876 2638 2637
          2636 1880 1881 1882 1883 1884
          1885 1886 1887 2635 2454 2633
          1891 1892 1893 1894 1895 1896
          1897 1898 1899 1900 1901 1902
          1903 1904 1905 1906 1907 1908
          1909 2581 2580 2579 1913 1914
          1915 1916 1917 1918 1919 1920
          1921 2453 2452 1924 1925 1926
          1927 1928 1929 1930 1931 1932
          1933 1934 1935 1936 1937 1938
          1939 1940 1941 1942 1943 1944
          1945 1946 1947 1948 1949 1950
          1951 1952 1953 1954 1955 2451
          1957 1958 1959 1960 1961 1962
          1963 1964 1965 1966 1967 2450
          1969 1970 1971 1972 1973 1974
          1975 1976 1977 1978 1979 1980
          1981 1982 1983 1984 1985 1986
          1987 2632 2631 1990 1991 1992
          1993 1994 1995 1996 1997 2630
          2629 2628 2627 2002 2003 2004
          2005 2006 2007 2008 2626 2625
          2624 2623 2013 2014 2015 2016
          2017 2018 2019 2020 2622 2621
          2023 2024 2025 2026 2027 2028
          2029 2030 2576 2575 2574 2573
          2035 2036 2037 2038 2039 2040
          2041 2572 2571 2570 2045 2046
          2047 2048 2049 2050 2051 2052
          2053 2569 2568 2056 2057 2058
          2059 2060 2061 2062 2063 2064
          2065 2066 2067 2068 2069 2070
          2071 2072 2073 2074 2075 2076
          2077 2078 2079 2080 2081 2082
          2083 2084 2085 2086 2087 2088
          2089 2090 2091 2092 2093 2094
          2095 2096 2097 2098 2099 2100
          2101 2102 2103 2104 2105 2106
          2107 2108 2449 2619 2111 2112
          2113 2114 2115 2116 2117 2118
          2618 2617 2616 2122 2123 2124
          2125 2126 2127 2128 2129 2615
          2614 2613 2133 2134 2135 2136
          2137 2138 2139 2140 2141 2612
          2611 2144 2145 2146 2147 2148
          2149 2150 2151 2567 2448 2565
          2155 2156 2157 2158 2159 2160
          2161 2162 2564 2563 2562 2447
          2167 2168 2169 2170 2171 2172
          2173 2174 2561 2560 2177 2178
          2179 2180 2181 2182 2183 2184
          2185 2186 2187 2446 2189 2190
          2191 2192 2193 2194 2195 2196
          2197 2198 2199 2200 2201 2202
          2203 2204 2205 2206 2445 2208
          2209 2210 2211 2212 2213 2214
          2215 2216 2217 2218 2444 2220
          2221 2222 2223 2224 2225 2226
          2227 2228 2229 2230 2231 2232
          2233 2234 2235 2236 2237 2238
          2239 2240 2610 2242 2243 2244
          2245 2246 2247 2248 2249 2250
          2251 2443 2253 2254 2255 2256
          2257 2258 2259 2260 2261 2262
          2442 2264 2265 2266 2267 2268
          2269 2270 2271 2272 2273 2559
          2558 2276 2277 2278 2279 2280
          2281 2282 2283 2284 2557 2556
          2287 2288 2289 2290 2291 2292
          2293 2294 2295 2296 2297 2298
          2299 2300 2301 2302 2303 2304
          2305 2306 2307 2441 2309 2310
          2311 2312 2313 2314 2315 2316
          2317 2318 2319 2320 2321 2322
          2323 2324 2325 2326 2327 2328
          2329 2440 2331 2332 2333 2334
          2335 2336 2337 2338 2339 2340
          2341 2342 2343 2344 2345 2346
          2347 2348 2349 2350 2351 2352
          2353 2354 2355 2356 2357 2358
          2359 2360 2361 2362 2363 2364
          2365 2366 2367 2368 2369 2370
          2371 2372 2373 2374 2375 2376
          2377 2378 2379 2380 2381 2382
          2383 2384 2385 2386 2387 2388
          2389 2390 2391 2392 2393 2394
          2395 2396 2397 2398 2399 2400
          2401 2402 2403 2404 2405 2406
          2407 2408 2409 2410 2411 2412
          2413 2414 2415 2416 2417 2418
          2419 2420 2421 2422 2423 2424
          2425 2426 2427 2428 2429 2430
          2431 2432 2433 2434 2435 2436
          2437 2438 2439
        </DataArray>
        <DataArray type="Int32" Name="type" format="ascii" RangeMin="1" RangeMax="3">
          1 3 2 2 2 2
          2 2 2 2 2 2
          2 2 2 2 2 2
          2 2 2 2 2 2
          3 2 2 2 2 2
          2 2 2 2 2 3
          3 2 2 2 2 2
          2 2 2 2 3 3
          2 2 2 2 2 2
          2 2 3 2 3 2
          2 2 2 2 2 2
          2 3 2 3 2 2
          2 2 2 2 2 2
          3 2 2 2 2 2
          2 2 2 2 2 2
          2 2 2 2 2 2
          2 2 2 2 2 2
          2 3 2 2 2 2
          2 2 3 2 2 2
          2 2 2 2 2 2
          2 2 2 2 2 2
          2 2 2 2 2 2
          2 2 2 2 2 2
          2 2 2 2 2 2
          2 2 2 2 2 2
          2 2 2 2 2 2
          2 2 2 2 2 2
          2 2 2 2 2 2
          2 2 2 2 2 2
          2 2 2 2 3 2
          2 2 2 2 2 2
          2 2 2 3 3 2
          2 2 2 2 2 2
          2 2 3 3 2 2
          2 2 2 2 2 2
          3 2 3 2 2 2
          2 2 2 2 2 3
          2 2 2 2 2 2
          2 2 2 2 2 2
          2 2 2 2 2 2
          2 2 2 2 3 2
          2 2 2 2 2 2
          2 2 2 2 2 2
          2 2 2 2 2 2
          2 2 2 3 2 2
          2 2 2 2 2 2
          2 2 2 2 2 2
          2 2 2 2 2 2
          2 2 2 2 2 2
          2 2 2 2 2 2
          2 2 2 2 2 2
          2 2 2 2 2 2
          2 2 2 2 2 2
          2 2 2 2 2 2
          2 2 2 2 2 2
          2 2 2 2 2 2
          2 2 2 2 2 2
          2 2 2 2 2 2
          2 2 2 2 2 2
          3 2 2 2 2 2
          2 2 2 2 2 2
          2 2 2 2 2 2
          2 2 2 2 2 2
          2 2 2 3 2 2
          2 2 2 2 2 2
          2 2 2 3 2 2
          2 2 2 2 2 2
          2 2 2 2 2 2
          2 2 2 2 2 3
          2 3 2 2 2 2
          2 2 2 2 2 2
          3 2 2 2 2 2
          2 2 2 3 2 3
          2 2 2 2 2 2
          2 2 2 3 2 2
          2 2 2 2 2 2
          2 2 2 2 2 2
          2 2 2 2 2 2
          2 2 2 2 2 2
          2 2 2 2 2 2
          2 2 2 2 2 2
          2 2 2 2 2 2
          2 3 2 2 2 2
          2 2 2 2 3 2
          2 2 2 2 2 2
          2 2 2 2 2 2
          2 2 2 2 2 2
          3 2 2 2 2 2
          2 2 2 2 2 3
          2 3 2 2 2 2
          2 2 2 2 2 3
          3 3 3 2 2 2
          2 2 2 2 3 3
          3 2 2 2 2 2
          2 2 2 2 3 2
          2 2 2 2 2 2
          2 2 3 3 3 2
          2 2 2 2 2 2
          2 3 3 3 3 2
          2 2 2 2 2 2
          2 2 3 3 2 2
          2 2 2 2 2 2
          2 2 2 2 2 2
          2 2 2 2 3 2
          2 2 2 2 2 2
          2 2 2 2 2 2
          2 2 2 2 2 2
          2 2 2 2 2 2
          2 2 2 2 2 2
          2 3 3 3 3 3
          2 2 2 2 2 2
          3 3 3 2 2 3
          2 2 2 2 2 3
          3 3 2 2 3 2
          2 2 2 2 3 3
          3 3 2 2 2 2
          2 2 2 3 3 3
          3 2 2 2 2 2
          2 2 3 3 3 2
          2 2 2 2 2 2
          2 2 3 3 2 2
          2 2 2 2 2 2
          2 2 2 2 2 2
          2 2 2 2 3 2
          2 2 2 2 2 2
          2 2 2 3 2 2
          2 2 2 2 2 2
          2 2 2 2 2 2
          2 2 2 2 2 2
          2 2 3 3 3 2
          2 2 2 2 2 2
          3 3 3 3 2 2
          2 2 2 2 2 2
          3 3 3 2 2 2
          2 2 2 2 2 3
          3 3 2 2 2 2
          2 2 2 2 3 3
          3 2 2 2 2 2
          2 2 2 3 3 3
          2 2 2 2 2 2
          2 2 2 3 2 2
          2 2 2 2 2 2
          2 2 2 2 2 2
          2 2 2 2 2 2
          2 2 3 2 2 2
          2 2 2 2 2 2
          2 2 2 2 2 2
          2 2 2 2 2 3
          2 2 2 2 2 2
          2 2 2 2 2 2
          2 2 2 2 2 2
          2 2 3 3 3 2
          2 2 2 2 2 2
          2 2 3 3 2 2
          2 2 2 2 2 2
          2 2 2 2 2 2
          2 2 2 2 2 2
          3 3 2 2 2 2
          2 2 2 2 3 3
          2 2 2 2 2 2
          2 2 2 2 2 2
          2 2 2 2 2 2
          2 2 2 2 2 2
          2 2 2 2 2 2
          2 2 2 2 2 2
          2 2 2 2 2 2
          2 2 2 2 2 2
          2 2 2 2 2 2
          2 2 2 2 2 2
          2 2 2 2 2 2
          2 2 2 2 2 2
          2 2 2 2 2 2
          2 2 2 2 2 2
          2 2 2 2 2 2
          2 2 2 2 2 2
          2 2 2 2 2 2
          2 2 2 2 2 2
          2 2 2 2 2 2
          2 2 2 2 2 2
          2 2 2 2 2 2
          2 2 2 2 2 2
          2 2 2 2 2 2
          2 2 2 2 2 2
          2 2 2 2 2 2
          2 2 2 2 2 2
          2 2 2 2 2 2
          2 2 2 2 2 2
          2 2 2 2 2 2
          2 2 2 2 2 2
          2 2 2 2 2 2
          2 2 2 2 2 2
          2 2 2 2 2 2
          2 2 2 2 2 2
          2 2 2 2 2 2
          2 2 2 2 2 2
          2 2 2 2 2 2
          2 2 2 2 2 2
          2 2 2 2 2 2
          2 2 2 2 2 2
          2 2 2 2 2 2
          2 2 2 2 2 2
          2 2 2 2 2 2
          2 2 2 2 2 2
          2 2 2 2 2 2
          2 2 2 2 2 2
          2 2 2 2 2 2
          2 2 2 2 2 2
          2 2 2 2 2 2
          2 2 2 2 2 2
          2 2 3 2 2 2
          2 2 2 2 2 2
          2 3 3 2 2 2
          2 2 2 2 2 2
          2 3 2 2 2 2
          2 2 2 2 3 2
          2 2 2 2 2 2
          2 2 2 3 2 2
          2 2 2 2 2 2
          2 2 2 2 2 2
          2 2 2 2 2 2
          2 2 2 2 2 2
          2 2 2 2 2 2
          2 3 3 3 3 3
          3 3 3 3 3 3
          3 3 3 3 3 3
          3 3 3 3 3 3
          3 3 3 3 3 3
          3 3 3 3 3 3
          3 3 3 3 3 3
          3 3 3 3 3 3
          3 3 3 3 3 3
          3 3 3 3 3 3
          3 3 3 3 3 3
          3 3 3 3 3 3
          3 3 3 3 3 3
          3 3 3 3 3 3
          3 3 3 3 3 3
          3 3 3 3 3 3
          3 3 3 3 3 3
          3 3 3 3 3 3
          3 3 3 3 3 3
          3 3 3 3 3 3
          3 3 3 3 3 3
          3 3 3 3 3 3
          3 3 3 3 3 3
          3 3 3 3 3 3
          3 3 3 3 3 3
          3 3 3 3 3 3
          3 3 3 3 3 3
          3 3 3 3 3 3
          3 3 3 3 3 3
          3 3 3 3 3 3
          3 3 3 3 3 3
          3 3 3 3 3 3
          3 3 3 3 3 3
          3 3 3 3 3 3
          3 3 3 3 3 3
          3 3 3 3 3 3
          3 3 3 3 3 3
          3 3 3 3 3 3
          3 3 3 3 3 3
          3 3 3 3 3 3
          3 3 3 3 3 3
          3 3 3 3 3 3
          3 3 3 3 3 3
          3 3 3 3 3 3
          3 3 3 3 3 3
          3 3 3 3 3 3
          3 3 3 3 3 3
          3 3 3 3 3 3
          3 3 3 3 3 3
          3 3 3 3 3 3
          3 3 3 3 3 3
          3 3 3 3 3 3
          3 3 3 3 3 3
          3 3 3 3 3 3
          3 3 3 3 3 3
          3 3 3 3 3 3
          3 3 3 3 3 3
          3 3 3 3 3 3
          3 3 3 3 3 3
          3 3 3 3 3 3
          3 3 3 3 3 3
          3 3 3 3 3 3
          3 3 3 3 3 3
          3 3 3 3 3 3
          3 3 3 3 3 3
          3 3 3 3 3 3
          3 3 3 3 3 3
          3 3 3 3 3 3
          3 3 3 3 3 3
          3 3 3 3 3 3
          3 3 3 3 3 3
          3 3 3 3 3 3
          3 3 3 3 3 3
          3 3 3 3 3 3
          3 3 3 3 3 3
          3 3 3 3 3 3
          3 3 3 3 3 3
          3 3 3 3 3 3
          3 3 3 3 3 3
          3 3 3 3 3 3
          3 3 3 3 3 3
          3 3 3 3 3 3
          3 3 3 3 3 3
          3 3 3 3 3 3
          3 3 3 3 3 3
          3 3 3 3 3 3
          3 3 3 3 3 3
          3 3 3 3 3 3
          3 3 3 3 3 3
          3 3 3 3 3 3
          3 3 3 3 3 3
          3 3 3 3 3 3
          3 3 3 3 3 3
          3 3 3 3 3 3
          3 3 3 3 3 3
          3 3 3 3 3 3
          3 3 3 3 3 3
          3 3 3 3 3 3
          3 3 3 3 3 3
          3 3 3 3 3 3
          3 3 3 3 3 3
          3 3 3 3 3 3
          3 3 3 3 3 3
          3 3 3 3 3 3
          3 3 3 3 3 3
          3 3 3 3 3 3
          3 3 3 3 3 3
          3 3 3 3 3 3
          3 3 3 3 3 3
          3 3 3 3 3 3
          3 3 3 3 3 3
          3 3 3 3 3 3
          3 3 3 3 3 3
          3 3 3 3 3 3
          3 3 3 3 3 3
          3 3 3 3 3 3
          3 3 3 3 3 3
          3 3 3 3 3 3
          3 3 3 3 3 3
          3 3 3 3 3 3
          3 3 3 3 3 3
          3 3 3 3 3 3
          3 3 3 3 3 3
          3 3 3 3 3 3
          3 3 3 3 3 3
          3 3 3 3 3 3
          3 3 3 3 3 3
          3 3 3 3 3 3
          3 3 3 3 3 3
          3 3 3 3 3 3
          3 3 3 3 3 3
          3 3 3 3 3 3
          3 3 3 3 3 3
          3 3 3 3 3 3
          3 3 3 3 3 3
          3 3 3 3 3 3
          3 3 3 3 3 3
          3 3 3 3 3 3
          3 3 3 3 3 3
          3 3 3 3 3 3
          3 3 3 3 3 3
          3 3 3 3 3 3
          3 3 3 3 3 3
          3 3 3 3 3 3
          3 3 3 3 3 3
          3 3 3 3 3 3
          3 3 3 3 3 3
          3 3 3 3 3 3
          3 3 3 3 3 3
          3 3 3 3 3 3
          3 3 3 3 3 3
          3 3 3 3 3 3
          3 3 3 3 3 3
          3 3 3 3 3 3
          3 3 3 3 3 3
          3 3 3 3 3 3
          3 3 3 3 3 3
          3 3 3 3 3 3
          3 3 3 3 3 3
          3 3 3 3 3 3
          3 3 3 3 3 3
          3 3 3 3 3 3
          3 3 3 3 3 3
          3 3 3 3 3 3
          3 3 3 3 3 3
          3 3 3 3 3 3
          3 3 3 3 3 3
          3 3 3 3 3 3
          3 3 3 3 3 3
          3 3 3 3 3 3
          3 3 3 3 3 3
          3 3 3 3 3 3
          3 3 3 3 3 3
          3 3 3 3 3 3
          3 3 3 3 3 3
          3 3 3 3 3 3
          3 3 3 3 3 3
          3 3 3 3 3 3
          3 3 3 3 3 3
          3 3 3 3 3 3
          3 3 3 3 3 3
          3 3 3 3 3 3
          3 3 3 3 3 3
          3 3 3 3 3 3
          3 3 3
        </DataArray>
        <DataArray type="Float64" Name="vx" format="ascii" RangeMin="-17.023777814" RangeMax="10.457531761">
          7.5322574579 7.96259303 5.7006529932 6.0554690903 5.0800830146 6.6210027349
          4.3695251486 7.1564081611 3.9360511295 3.6221649745 6.7578325335 9.4984678415
          7.0909751719 4.8515461117 5.9556519115 5.4450393743 6.0933613899 2.5489411778
          5.935007344 3.6856125661 1.3038105483 5.8928561077 9.0044621184 7.3243184134
          5.622317193 6.0758375324 8.9401611469 5.7205019871 2.5665598868 4.5041549246
          3.4568794036 6.8934734116 5.9367150108 7.6165712399 7.2096115048 3.7572068122
          0.56488267107 7.7431055453 5.5672806148 3.1779650012 4.5766798779 4.7339995217
          5.8028704147 6.4396347104 7.3107150641 6.7094866562 6.8061205285 6.4453419665
          7.2617925402 3.8857821652 1.2024470168 4.8416375001 2.8708174529 6.1082855345
          6.5122980117 7.2648217181 8.8257629116 9.5219791355 4.6668287214 6.3858763191
          4.5927940759 5.9420778896 4.8351259804 4.1195621128 6.2247316267 6.1872298955
          6.8509091272 5.2047522205 8.4965668515 7.3307775349 5.051691122 4.3375477778
          5.4755611781 4.6176140765 7.8614645307 5.9901435484 7.9627262512 6.6921878379
          5.6965079062 7.4654282916 8.5681727469 4.8000380688 6.2831620886 8.0802760447
          3.9824563537 5.7989484865 3.9865814099 7.9313031813 6.753492522 5.0653450351
          6.8366375261 7.885558402 4.3534992155 6.8812644833 5.2780844994 6.9307986177
          5.7277004382 3.8534041384 7.3483476394 6.7662214079 9.6322124208 6.5031014669
          7.2145041622 4.4152512496 8.0560796275 5.1604887876 5.2384386287 5.188133927
          3.1288778022 8.2540505355 6.1261415243 7.6565566976 6.500314532 6.7225865004
          4.7893584596 7.1627824885 4.8866711195 5.4578802074 5.5425074466 3.7304891106
          6.9380701802 6.6899830043 7.0081345527 7.3858141485 8.2696350355 5.9921000487
          6.614936394 2.9003531036 4.778150357 0.52085646099 3.7733173372 8.2720471458
          6.8619738987 8.0891571265 7.0840605111 7.8706699023 5.8970224009 6.7226267261
          3.1443562822 4.6704476776 3.0218788601 4.1612688233 8.5889283499 7.0062863959
          7.6807646262 7.6044244351 7.6148979816 6.0066848069 4.9288573726 -0.21023300471
          5.3985260224 2.0042954578 4.8048855924 6.3737227699 7.3189590794 6.9999293864
          6.2822244727 7.4166127013 5.7859762694 6.4144292119 1.8674780124 3.7111254064
          5.9845299104 2.7294994897 7.2108308008 6.3441219232 6.6187574036 6.2084792196
          7.7069656071 10.296497891 6.7274705899 5.7873757379 2.0107756743 5.0510282832
          5.1235604243 6.1679585404 6.8401227592 6.6360840626 -1.6128657453 6.8232930727
          7.5871943088 7.8889973897 4.8549041124 1.4972701474 5.42495189 4.5759441006
          6.1318646238 9.0918133729 6.3070614297 1.1851784821 7.351044689 7.2402438325
          6.2444730249 2.4743701372 5.9365904054 3.279092927 5.5358022592 6.3289517001
          7.2761372559 6.6214666044 5.2290425427 7.6597663826 6.5967855972 5.6516263651
          1.4619131089 5.083888121 3.2750947423 5.6785736227 6.3537147828 7.0727775423
          5.7943555785 8.8653939868 2.8772672984 5.5671165995 4.6750043138 7.9152350056
          4.6404505389 2.8077728493 5.9539444503 6.2678203816 6.9092263797 6.9116885494
          8.0895626262 5.4939931464 6.3603455331 5.9169127273 6.3851075797 4.6329128117
          2.9587468872 6.0116902924 6.9489472791 7.2553160186 9.4738903772 7.5985810647
          9.4382992138 6.1259369434 6.7097680175 0.19402445375 3.4069896566 4.7534354175
          3.0218530248 8.1608961532 7.16437254 9.2166447192 3.5480645602 7.2736245457
          8.7754844469 7.2187869997 6.5954762294 2.7470253752 1.2676400304 2.9704872827
          5.7060724475 4.9976476783 6.1213604113 6.6878526597 7.1996388981 8.6273705631
          7.2486221904 6.617064891 5.9139834161 4.1878280581 4.0627602476 5.8504398056
          5.3321559962 6.0812577312 5.600513441 1.000637805 8.5126523698 7.6566035665
          5.7432064616 0.13126557892 1.0954418707 6.0924232348 5.7778243265 5.3683472542
          6.2751413214 7.5916357303 6.4578451578 8.4526592529 1.9819265143 4.173256054
          2.7448045811 1.4106882968 1.7895937726 5.4035454565 9.1070372585 5.8080359231
          8.4741894664 5.6032648465 7.6902815638 4.8798976965 4.1014200557 3.6630000536
          4.8360058931 -6.5318852577 3.6338903785 6.6794958253 6.4134778287 7.6183847565
          9.1953997874 6.0062110322 4.1268542693 3.2782163722 4.6740462753 3.4525992952
          -16.683875437 4.1625842441 5.0494477142 9.5985507148 7.3558221645 8.2028151048
          5.8392426956 4.5314968725 3.1617308139 4.3752118628 -16.087805006 3.6910558623
          3.6075637959 6.1596491369 8.3854071956 7.3064998758 6.9221015658 6.2669879724
          6.8761005261 3.2895183851 6.3644842286 -16.277364208 5.2244260676 7.067414465
          7.9152288747 6.9131092374 6.3625794744 7.4698499552 6.7411999207 6.3095012781
          4.0063933517 -1.1559695729 2.9405121293 3.539726653 6.3521609269 7.8104539886
          6.6310986618 6.5572451261 6.508158429 8.4379932404 8.3590466168 2.4854343924