<?xml version="1.0"?>
<VTKFile type="PolyData" version="0.1" byte_order="LittleEndian" header_type="UInt32" compressor="vtkZLibDataCompressor">
  <PolyData>
    <Piece NumberOfPoints="2226" NumberOfVerts="2226" NumberOfLines="0" NumberOfStrips="0" NumberOfPolys="0">
      <PointData>
        <DataArray type="Int32" Name="id" format="ascii" RangeMin="1" RangeMax="2664">
          1 2608 3 4 5 6
          7 8 9 10 11 12
          13 14 15 16 17 18
          19 20 21 22 23 24
          2538 26 27 28 29 30
          31 32 33 34 35 2537
          2536 38 39 40 41 42
          43 44 45 46 2535 2534
          2328 50 51 52 53 54
          55 56 2533 58 2532 2327
          61 62 63 64 65 66
          67 2531 69 2530 71 72
          73 74 75 76 77 78
          2529 80 81 82 83 84
          85 86 87 88 89 90
          91 92 93 94 95 96
          97 98 99 2439 101 102
          103 2528 105 106 107 108
          109 110 2326 112 113 114
          115 116 117 118 119 120
          121 122 123 124 2325 2324
          127 128 129 130 131 132
          133 134 135 2323 2322 138
          139 140 141 142 143 2438
          145 146 2321 2320 149 150
          151 152 153 154 155 156
          157 2319 2318 160 161 162
          2317 164 165 166 167 168
          2437 2316 171 172 173 174
          175 176 177 178 2526 2315
          181 182 183 184 185 186
          187 188 189 2525 2524 2314
          193 194 195 196 197 198
          199 2436 2523 2522 203 204
          205 206 207 2313 209 210
          2521 212 2520 214 215 216
          2312 218 219 220 221 2519
          223 224 2311 226 227 228
          229 230 231 232 233 234
          235 2310 237 238 239 240
          241 242 243 244 2518 2435
          247 248 249 250 251 252
          253 254 255 256 2434 258
          259 2309 2441 262 263 264
          265 266 267 2517 269 270
          271 272 273 274 275 276
          277 278 279 280 281 282
          283 284 285 286 287 288
          289 290 291 292 293 294
          295 296 297 298 299 300
          301 302 303 304 2307 306
          2433 308 309 310 311 312
          313 314 315 316 2432 318
          319 320 321 322 323 324
          325 326 327 2431 329 2430
          2429 332 333 2306 335 336
          337 338 339 340 341 342
          343 344 345 346 347 348
          349 350 351 352 353 354
          2516 2428 357 358 359 360
          361 362 363 364 365 366
          367 368 369 370 2305 372
          2304 374 375 376 377 378
          379 380 381 2515 383 384
          385 386 387 388 389 390
          391 392 393 2514 395 396
          397 398 399 400 401 402
          403 404 405 2427 2426 408
          409 410 411 412 413 2547
          415 2546 417 2425 419 420
          421 422 423 424 2424 2423
          2555 428 2422 430 431 432
          433 434 435 2513 2421 2545
          439 440 441 442 443 444
          445 446 447 2544 449 450
          451 452 453 454 455 456
          457 458 459 460 461 462
          463 464 465 466 467 468
          469 470 471 472 473 474
          475 476 477 478 479 480
          481 482 2420 484 485 486
          487 488 489 490 491 492
          493 2512 495 496 497 498
          499 500 501 502 2511 504
          505 506 507 508 509 510
          511 512 513 514 515 516
          517 2419 519 520 521 522
          2510 524 525 526 527 528
          529 530 531 532 533 2543
          2418 2664 2417 538 539 540
          541 542 543 544 545 2663
          2662 2661 2542 550 551 552
          553 554 555 556 2660 2659
          2658 560 561 562 563 564
          565 566 567 568 2607 570
          571 572 573 574 575 576
          577 578 2606 2605 2604 582
          583 584 585 586 587 588
          589 2603 2602 2601 2509 2416
          595 596 597 598 599 600
          601 602 2508 2507 605 606
          607 608 609 610 611 612
          613 614 615 616 617 618
          619 620 621 2415 2506 624
          625 626 627 628 629 630
          631 632 633 634 635 636
          637 2414 639 640 641 642
          643 644 2413 646 647 648
          649 2412 651 652 653 654
          2411 2657 2656 2655 2541 2505
          2410 662 663 664 665 666
          2654 2653 2652 2409 671 2504
          673 674 675 676 2408 2651
          2650 2649 681 682 2503 684
          685 686 687 2406 2600 2648
          2599 2554 693 694 695 696
          697 698 699 2598 2597 2596
          2553 704 705 706 707 708
          709 710 2595 2594 2593 714
          715 716 717 718 719 720
          721 722 2592 2552 725 726
          727 728 729 730 731 732
          733 734 735 736 737 738
          739 740 741 742 2502 744
          745 746 747 748 749 750
          751 752 753 2501 2303 756
          757 2405 2404 760 761 762
          763 764 765 766 767 768
          769 2403 771 772 773 774
          775 776 2647 2646 2645 780
          2402 782 783 784 785 786
          2551 2644 2643 2642 791 792
          793 794 795 796 2401 798
          2641 2640 2639 802 803 804
          805 806 807 808 2400 2591
          2590 2500 813 814 815 816
          817 818 819 820 2499 2587
          2586 824 825 826 827 828
          829 830 831 2585 2584 2583
          835 836 837 838 839 840
          841 842 843 2550 2399 846
          2398 848 849 850 851 852
          853 854 855 856 2302 858
          859 860 861 862 863 864
          865 866 2498 868 869 870
          871 872 873 874 875 876
          877 2395 879 880 881 882
          883 884 885 886 887 2540
          889 890 891 892 893 894
          895 896 897 898 2394 900
          901 902 903 904 905 906
          907 908 2549 2497 2496 912
          2393 914 915 916 917 918
          2392 920 2495 2494 923 924
          925 926 927 928 929 930
          931 2391 933 934 935 936
          937 938 939 940 941 942
          2582 2539 2390 946 947 948
          949 950 951 952 2493 2548
          955 956 957 958 959 960
          961 962 963 964 2389 2388
          967 968 969 970 971 972
          973 974 975 976 977 978
          979 980 981 982 983 984
          985 986 987 988 989 990
          991 992 993 994 995 996
          997 998 999 1000 1001 1002
          1003 1004 1005 1006 1007 1008
          1009 1010 2387 1012 1013 1014
          1015 1016 1017 1018 2301 1020
          1021 2386 1023 1024 1025 1026
          1027 1028 1029 1030 2300 1032
          1033 1034 1035 1036 1037 1038
          1039 1040 1041 1042 1043 1044
          1045 1046 1047 1048 1049 1050
          1051 2385 1053 2299 1055 1056
          1057 1058 1059 1060 1061 1062
          1063 1064 1065 1066 1067 1068
          1069 1070 1071 1072 1073 1074
          1075 2384 1077 1078 1079 1080
          1081 1082 1083 1084 1085 1086
          1087 1088 1089 1090 1091 1092
          1093 1094 1095 1096 1097 1098
          1099 1100 1101 1102 1103 1104
          1105 1106 1107 1108 1109 1110
          1111 1112 1113 1114 1115 1116
          1117 1118 1119 1120 1121 1122
          1123 1124 1125 1126 1127 1128
          1129 1130 1131 1132 1133 1134
          1135 1136 1137 1138 1139 1140
          1141 1142 1143 1144 1145 1146
          1147 1148 1149 1150 1151 1152
          1153 1154 1155 1156 1157 1158
          1159 1160 1161 1162 1163 1164
          1165 1166 1167 1168 1169 1170
          1171 1172 1173 1174 1175 1176
          1177 1178 1179 1180 1181 1182
          1183 1184 1185 1186 1187 1188
          1189 1190 1191 1192 1193 1194
          1195 1196 1197 1198 1199 1200
          1201 1202 1203 1204 1205 1206
          1207 1208 1209 1210 1211 1212
          1213 1214 1215 1216 1217 1218
          1219 1220 1221 1222 1223 1224
          1225 1226 1227 1228 1229 1230
          1231 1232 1233 1234 1235 1236
          1237 1238 1239 1240 1241 1242
          1243 1244 1245 1246 1247 1248
          1249 1250 1251 1252 1253 1254
          1255 1256 2492 1258 1259 1260
          1261 1262 1263 1264 1265 1266
          1267 2491 2490 1270 1271 1272
          1273 1274 1275 1276 1277 1278
          1279 2489 1281 1282 1283 1284
          1285 1286 1287 1288 2488 1290
          1291 1292 1293 1294 1295 1296
          1297 1298 1299 2487 1301 1302
          1303 1304 1305 1306 1307 1308
          1309 1310 1311 1312 1313 1314
          1315 1316 1317 1318 1319 1320
          1321 1322 1323 1324 1325 1326
          1327 1328 1329 1330 1331 1332
          1333 2486 2485 1336 1337 2298
          1339 1340 1341 1342 1343 2383
          2484 2483 1347 1348 1349 1350
          1351 1352 1353 1354 2382 2482
          2481 1358 1359 2297 1361 1362
          1363 1364 1365 2381 1367 2480
          1369 1370 2296 1372 1373 1374
          1375 1376 2479 1378 1379 1380
          1381 1382 1383 1384 1385 1386
          1387 2478 1389 1390 2477 1392
          1393 1394 1395 1396 1397 1398
          1399 1400 1401 2476 1403 1404
          1405 1406 1407 1408 1409 1410
          1411 1412 1413 1414 1415 1416
          1417 1418 1419 2380 1421 1422
          1423 1424 1425 1426 1427 1428
          1429 1430 2475 1432 1433 1434
          1435 1436 1437 1438 1439 1440
          1441 1442 1443 2474 1445 2295
          1447 1448 1449 1450 1451 1452
          1453 1454 2379 2378 2294 1458
          2293 1460 1461 2292 1463 1464
          1465 2473 2377 2291 1469 1470
          1471 1472 1473 1474 1475 1476
          2472 2471 2290 1480 2289 1482
          1483 1484 1485 1486 2376 2470
          2469 2329 2287 1492 1493 1494
          1495 2556 1497 2375 2468 2467
          2557 2440 2283 1504 1505 1506
          2282 1508 2466 1510 1511 2281
          1513 2280 1515 1516 1517 1518
          1519 2465 1521 2279 2278 2276
          2558 1526 2559 1528 1529 1530
          2464 1532 2332 2463 1535 1536
          1537 1538 1539 1540 1541 1542
          1543 2272 2462 1546 1547 1548
          1549 1550 1551 2374 1553 1554
          2271 2270 2269 1558 1559 1560
          1561 1562 2373 1564 2372 2268
          2267 2333 1569 1570 1571 1572
          1573 2371 1575 1576 2265 2442
          1579 1580 1581 1582 2262 1584
          1585 1586 1587 1588 2261 2260
          1591 1592 1593 1594 1595 1596
          1597 1598 1599 2461 2259 1602
          1603 1604 1605 1606 1607 1608
          1609 2258 1611 1612 1613 1614
          1615 1616 1617 1618 1619 1620
          2257 1622 1623 1624 1625 1626
          1627 2370 1629 1630 2369 2255
          1633 1634 1635 1636 1637 1638
          1639 2368 1641 2367 2366 2254
          1645 1646 1647 2253 1649 1650
          1651 1652 2460 2365 2443 1656
          1657 1658 1659 1660 1661 1662
          1663 2459 2458 1666 1667 1668
          1669 1670 1671 1672 1673 1674
          1675 2457 2251 1678 1679 2250
          1681 1682 1683 1684 2249 1686
          1687 2248 1689 2247 2246 1692
          1693 1694 1695 2363 1697 1698
          1699 1700 2245 1702 1703 1704
          1705 1706 1707 1708 1709 1710
          1711 1712 1713 2244 2334 1716
          1717 1718 1719 1720 1721 1722
          1723 1724 2361 1726 1727 1728
          1729 1730 1731 1732 1733 1734
          1735 2456 1737 1738 1739 1740
          1741 1742 1743 1744 1745 1746
          1747 1748 1749 1750 1751 1752
          1753 1754 1755 1756 2360 1758
          1759 1760 1761 1762 1763 1764
          1765 1766 1767 2455 1769 1770
          1771 1772 2242 1774 1775 1776
          1777 1778 1779 2610 2359 1782
          1783 2240 1785 1786 1787 1788
          1789 1790 2239 2358 1793 1794
          1795 1796 1797 1798 1799 1800
          2238 1802 1803 1804 1805 1806
          1807 1808 1809 1810 1811 1812
          1813 1814 1815 1816 1817 2237
          1819 1820 1821 1822 1823 1824
          1825 1826 1827 1828 1829 1830
          1831 1832 1833 1834 1835 1836
          1837 1838 1839 1840 1841 1842
          1843 2357 1845 1846 1847 1848
          1849 1850 1851 1852 1853 1854
          1855 1856 1857 1858 1859 1860
          1861 1862 1863 1864 1865 1866
          1867 1868 2356 1870 1871 1872
          1873 1874 1875 1876 2638 2637
          2636 1880 1881 1882 2236 1884
          1885 1886 1887 2635 2454 2633
          1891 1892 1893 2235 1895 1896
          1897 1898 2355 1900 2354 2234
          1903 1904 1905 1906 1907 1908
          1909 2581 2580 2579 1913 1914
          1915 1916 1917 1918 1919 1920
          1921 2453 2452 1924 1925 1926
          1927 1928 1929 1930 1931 1932
          1933 2352 1935 1936 1937 1938
          1939 1940 1941 1942 1943 1944
          1945 2335 1947 1948 1949 1950
          1951 1952 1953 2232 1955 2451
          1957 1958 1959 1960 1961 1962
          1963 1964 1965 1966 1967 2450
          2351 1970 1971 1972 1973 1974
          1975 1976 1977 1978 1979 2350
          2349 1982 1983 1984 1985 1986
          1987 2632 2631 1990 1991 1992
          1993 1994 1995 1996 1997 2630
          2629 2628 2627 2002 2348 2004
          2005 2006 2007 2231 2626 2625
          2624 2623 2013 2014 2015 2016
          2017 2018 2019 2020 2622 2621
          2023 2024 2025 2026 2027 2028
          2029 2030 2576 2575 2574 2573
          2035 2036 2037 2038 2039 2040
          2041 2572 2571 2570 2230 2046
          2047 2048 2049 2050 2051 2052
          2053 2569 2568 2347 2057 2058
          2059 2060 2061 2062 2063 2064
          2065 2066 2067 2068 2069 2070
          2071 2072 2073 2074 2346 2076
          2077 2078 2079 2080 2081 2082
          2083 2084 2085 2336 2087 2088
          2345 2090 2091 2092 2093 2094
          2095 2344 2097 2098 2099 2100
          2343 2102 2103 2104 2105 2106
          2107 2108 2449 2619 2111 2112
          2113 2114 2115 2116 2117 2118
          2618 2617 2616 2122 2123 2124
          2125 2126 2127 2128 2129 2615
          2614 2613 2341 2134 2135 2136
          2137 2138 2139 2140 2141 2612
          2611 2144 2145 2146 2147 2148
          2149 2150 2340 2567 2448 2565
          2339 2156 2157 2158 2159 2160
          2161 2338 2564 2563 2562 2447
          2167 2168 2169 2170 2171 2172
          2173 2228 2561 2560 2177 2178
          2179 2180 2181 2182 2183 2184
          2185 2186 2187 2446 2189 2190
          2191 2192 2193 2194 2195 2196
          2197 2198 2199 2200 2201 2202
          2203 2204 2205 2206 2445 2208
          2209 2210 2211 2212 2213 2214
          2215 2216 2217 2218 2444 2220
          2227 2337 2223 2224 2225 2226
        </DataArray>
        <DataArray type="Int32" Name="type" format="ascii" RangeMin="1" RangeMax="3">
          1 3 2 2 2 2
          2 2 2 2 2 2
          2 2 2 2 2 2
          2 2 2 2 2 2
          3 2 2 2 2 2
          2 2 2 2 2 3
          3 2 2 2 2 2
          2 2 2 2 3 3
          3 2 2 2 2 2
          2 2 3 2 3 3
          2 2 2 2 2 2
          2 3 2 3 2 2
          2 2 2 2 2 2
          3 2 2 2 2 2
          2 2 2 2 2 2
          2 2 2 2 2 2
          2 2 2 3 2 2
          2 3 2 2 2 2
          2 2 3 2 2 2
          2 2 2 2 2 2
          2 2 2 2 3 3
          2 2 2 2 2 2
          2 2 2 3 3 2
          2 2 2 2 2 3
          2 2 3 3 2 2
          2 2 2 2 2 2
          2 3 3 2 2 2
          3 2 2 2 2 2
          3 3 2 2 2 2
          2 2 2 2 3 3
          2 2 2 2 2 2
          2 2 2 3 3 3
          2 2 2 2 2 2
          2 3 3 3 2 2
          2 2 2 3 2 2
          3 2 3 2 2 2
          3 2 2 2 2 3
          2 2 3 2 2 2
          2 2 2 2 2 2
          2 3 2 2 2 2
          2 2 2 2 3 3
          2 2 2 2 2 2
          2 2 2 2 3 2
          2 3 3 2 2 2
          2 2 2 3 2 2
          2 2 2 2 2 2
          2 2 2 2 2 2
          2 2 2 2 2 2
          2 2 2 2 2 2
          2 2 2 2 2 2
          2 2 2 2 3 2
          3 2 2 2 2 2
          2 2 2 2 3 2
          2 2 2 2 2 2
          2 2 2 3 2 3
          3 2 2 3 2 2
          2 2 2 2 2 2
          2 2 2 2 2 2
          2 2 2 2 2 2
          3 3 2 2 2 2
          2 2 2 2 2 2
          2 2 2 2 3 2
          3 2 2 2 2 2
          2 2 2 3 2 2
          2 2 2 2 2 2
          2 2 2 3 2 2
          2 2 2 2 2 2
          2 2 2 3 3 2
          2 2 2 2 2 3
          2 3 2 3 2 2
          2 2 2 2 3 3
          3 2 3 2 2 2
          2 2 2 3 3 3
          2 2 2 2 2 2
          2 2 2 3 2 2
          2 2 2 2 2 2
          2 2 2 2 2 2
          2 2 2 2 2 2
          2 2 2 2 2 2
          2 2 2 2 2 2
          2 2 3 2 2 2
          2 2 2 2 2 2
          2 3 2 2 2 2
          2 2 2 2 3 2
          2 2 2 2 2 2
          2 2 2 2 2 2
          2 3 2 2 2 2
          3 2 2 2 2 2
          2 2 2 2 2 3
          3 3 3 2 2 2
          2 2 2 2 2 3
          3 3 3 2 2 2
          2 2 2 2 3 3
          3 2 2 2 2 2
          2 2 2 2 3 2
          2 2 2 2 2 2
          2 2 3 3 3 2
          2 2 2 2 2 2
          2 3 3 3 3 3
          2 2 2 2 2 2
          2 2 3 3 2 2
          2 2 2 2 2 2
          2 2 2 2 2 2
          2 2 2 3 3 2
          2 2 2 2 2 2
          2 2 2 2 2 2
          2 3 2 2 2 2
          2 2 3 2 2 2
          2 3 2 2 2 2
          3 3 3 3 3 3
          3 2 2 2 2 2
          3 3 3 3 2 3
          2 2 2 2 3 3
          3 3 2 2 3 2
          2 2 2 3 3 3
          3 3 2 2 2 2
          2 2 2 3 3 3
          3 2 2 2 2 2
          2 2 3 3 3 2
          2 2 2 2 2 2
          2 2 3 3 2 2
          2 2 2 2 2 2
          2 2 2 2 2 2
          2 2 2 2 3 2
          2 2 2 2 2 2
          2 2 2 3 3 2
          2 3 3 2 2 2
          2 2 2 2 2 2
          2 3 2 2 2 2
          2 2 3 3 3 2
          3 2 2 2 2 2
          3 3 3 3 2 2
          2 2 2 2 3 2
          3 3 3 2 2 2
          2 2 2 2 3 3
          3 3 2 2 2 2
          2 2 2 2 3 3
          3 2 2 2 2 2
          2 2 2 3 3 3
          2 2 2 2 2 2
          2 2 2 3 3 2
          3 2 2 2 2 2
          2 2 2 2 3 2
          2 2 2 2 2 2
          2 2 3 2 2 2
          2 2 2 2 2 2
          2 3 2 2 2 2
          2 2 2 2 2 3
          2 2 2 2 2 2
          2 2 2 2 3 2
          2 2 2 2 2 2
          2 2 3 3 3 2
          3 2 2 2 2 2
          3 2 3 3 2 2
          2 2 2 2 2 2
          2 3 2 2 2 2
          2 2 2 2 2 2
          3 3 3 2 2 2
          2 2 2 2 3 3
          2 2 2 2 2 2
          2 2 2 2 3 3
          2 2 2 2 2 2
          2 2 2 2 2 2
          2 2 2 2 2 2
          2 2 2 2 2 2
          2 2 2 2 2 2
          2 2 2 2 2 2
          2 2 2 2 2 2
          2 2 3 2 2 2
          2 2 2 2 3 2
          2 3 2 2 2 2
          2 2 2 2 3 2
          2 2 2 2 2 2
          2 2 2 2 2 2
          2 2 2 2 2 2
          2 3 2 3 2 2
          2 2 2 2 2 2
          2 2 2 2 2 2
          2 2 2 2 2 2
          2 3 2 2 2 2
          2 2 2 2 2 2
          2 2 2 2 2 2
          2 2 2 2 2 2
          2 2 2 2 2 2
          2 2 2 2 2 2
          2 2 2 2 2 2
          2 2 2 2 2 2
          2 2 2 2 2 2
          2 2 2 2 2 2
          2 2 2 2 2 2
          2 2 2 2 2 2
          2 2 2 2 2 2
          2 2 2 2 2 2
          2 2 2 2 2 2
          2 2 2 2 2 2
          2 2 2 2 2 2
          2 2 2 2 2 2
          2 2 2 2 2 2
          2 2 2 2 2 2
          2 2 2 2 2 2
          2 2 2 2 2 2
          2 2 2 2 2 2
          2 2 2 2 2 2
          2 2 2 2 2 2
          2 2 2 2 2 2
          2 2 2 2 2 2
          2 2 2 2 2 2
          2 2 2 2 2 2
          2 2 2 2 2 2
          2 2 3 2 2 2
          2 2 2 2 2 2
          2 3 3 2 2 2
          2 2 2 2 2 2
          2 3 2 2 2 2
          2 2 2 2 3 2
          2 2 2 2 2 2
          2 2 2 3 2 2
          2 2 2 2 2 2
          2 2 2 2 2 2
          2 2 2 2 2 2
          2 2 2 2 2 2
          2 2 2 2 2 2
          2 3 3 3 3 3
          3 3 3 3 3 3
          3 3 3 3 3 3
          3 3 3 3 3 3
          3 3 3 3 3 3
          3 3 3 3 3 3
          3 3 3 3 3 3
          3 3 3 3 3 3
          3 3 3 3 3 3
          3 3 3 3 3 3
          3 3 3 3 3 3
          3 3 3 3 3 3
          3 3 3 3 3 3
          3 3 3 3 3 3
          3 3 3 3 3 3
          3 3 3 3 3 3
          3 3 3 3 3 3
          3 3 3 3 3 3
          3 3 3 3 3 3
          3 3 3 3 3 3
          3 3 3 3 3 3
          3 3 3 3 3 3
          3 3 3 3 3 3
          3 3 3 3 3 3
          3 3 3 3 3 3
          3 3 3 3 3 3
          3 3 3 3 3 3
          3 3 3 3 3 3
          3 3 3 3 3 3
          3 3 3 3 3 3
          3 3 3 3 3 3
          3 3 3 3 3 3
          3 3 3 3 3 3
          3 3 3 3 3 3
          3 3 3 3 3 3
          3 3 3 3 3 3
          3 3 3 3 3 3
          3 3 3 3 3 3
          3 3 3 3 3 3
          3 3 3 3 3 3
          3 3 3 3 3 3
          3 3 3 3 3 3
          3 3 3 3 3 3
          3 3 3 3 3 3
          3 3 3 3 3 3
          3 3 3 3 3 3
          3 3 3 3 3 3
          3 3 3 3 3 3
          3 3 3 3 3 3
          3 3 3 3 3 3
          3 3 3 3 3 3
          3 3 3 3 3 3
          3 3 3 3 3 3
          3 3 3 3 3 3
          3 3 3 3 3 3
          3 3 3 3 3 3
          3 3 3 3 3 3
          3 3 3 3 3 3
          3 3 3 3 3 3
          3 3 3 3 3 3
          3 3 3 3 3 3
          3 3 3 3 3 3
          3 3 3 3 3 3
          3 3 3 3 3 3
          3 3 3 3 3 3
          3 3 3 3 3 3
          3 3 3 3 3 3
          3 3 3 3 3 3
          3 3 3 3 3 3
          3 3 3 3 3 3
          3 3 3 3 3 3
          3 3 3 3 3 3
          3 3 3 3 3 3
          3 3 3 3 3 3
          3 3 3 3 3 3
          3 3 3 3 3 3
          3 3 3 3 3 3
          3 3 3 3 3 3
          3 3 3 3 3 3
          3 3 3 3 3 3
          3 3 3 3 3 3
          3 3 3 3 3 3
          3 3 3 3 3 3
          3 3 3 3 3 3
          3 3 3 3 3 3
          3 3 3 3 3 3
          3 3 3 3 3 3
          3 3 3 3 3 3
          3 3 3 3 3 3
          3 3 3 3 3 3
          3 3 3 3 3 3
          3 3 3 3 3 3
          3 3 3 3 3 3
          3 3 3 3 3 3
          3 3 3 3 3 3
          3 3 3 3 3 3
          3 3 3 3 3 3
          3 3 3 3 3 3
          3 3 3 3 3 3
          3 3 3 3 3 3
          3 3 3 3 3 3
          3 3 3 3 3 3
          3 3 3 3 3 3
          3 3 3 3 3 3
          3 3 3 3 3 3
          3 3 3 3 3 3
          3 3 3 3 3 3
          3 3 3 3 3 3
          3 3 3 3 3 3
          3 3 3 3 3 3
          3 3 3 3 3 3
          3 3 3 3 3 3
          3 3 3 3 3 3
          3 3 3 3 3 3
          3 3 3 3 3 3
          3 3 3 3 3 3
          3 3 3 3 3 3
          3 3 3 3 3 3
          3 3 3 3 3 3
          3 3 3 3 3 3
          3 3 3 3 3 3
          3 3 3 3 3 3
          3 3 3 3 3 3
          3 3 3 3 3 3
          3 3 3 3 3 3
          3 3 3 3 3 3
          3 3 3 3 3 3
          3 3 3 3 3 3
          3 3 3 3 3 3
          3 3 3 3 3 3
          3 3 3 3 3 3
          3 3 3 3 3 3
          3 3 3 3 3 3
          3 3 3 3 3 3
          3 3 3 3 3 3
          3 3 3 3 3 3
          3 3 3 3 3 3
          3 3 3 3 3 3
          3 3 3 3 3 3
          3 3 3 3 3 3
          3 3 3 3 3 3
          3 3 3 3 3 3
          3 3 3 3 3 3
          3 3 3 3 3 3
          3 3 3 3 3 3
          3 3 3 3 3 3
          3 3 3 3 3 3
          3 3 3 3 3 3
          3 3 3 3 3 3
        </DataArray>
        <DataArray type="Float64" Name="vx" format="ascii" RangeMin="-11.180950668" RangeMax="10.953600712">
          3.3766436118 8.4584128968 3.7627195212 2.1122429142 2.5879288386 3.76205011
          6.5861496294 4.0902878397 5.9717185809 7.7792270452 5.573725326 7.6971057937
          3.8620248377 6.3692760273 2.6742871876 3.1263807131 3.7640218659 0.44304330869
          2.2222349777 5.6137346011 3.7929805954 5.2364449375 5.1702058897 1.9329456456
          1.7975460919 2.32657313 2.385204994 6.4057356675 1.6759596807 3.6102626946
          5.163626032 3.6832173629 4.5893556319 6.6550632001 4.5225789134 6.3529153288
          4.5230230949 2.0788103748 2.739159581 -0.5681718244 3.7022071925 5.2213670366
          6.9883895328 3.4855524932 4.5065791052 7.4320686744 5.8402591428 5.977094823
          -5.1315291834 5.2886001415 2.8819825588 3.662431648 0.077163488249 4.7253652764
          6.2973500238 4.5380079226 8.2472275485 4.0005494732 5.7166796425 5.4938902019
          2.2149853688 1.265799546 6.8505928236 4.3635076255 6.2587848835 5.0724639305
          5.5615209842 3.4372985942 6.0832653127 8.3272261097 4.3360505352 2.8376534424
          2.2105907723 2.5718796337 3.2066255554 6.1598855803 7.9031462249 4.9958002831
          6.3550382839 6.1114951568 5.4606036687 4.0218114175 2.4985644221 3.471375559
          2.2535220756 0.65577616237 4.0882642005 7.9771590167 3.3981845318 4.2418996552
          5.276551177 1.4089768456 4.0357334818 5.047911476 -1.0442559362 1.604573578
          -0.12607998402 3.0956962728 6.1298365128 2.5373064328 3.9527639389 3.7441093509
          1.8171031366 5.464790908 3.470651039 1.0925550938 0.70559032071 0.31231878368
          7.7579999628 6.9888226164 6.4189007756 8.5887489223 5.4661947676 3.0231323081
          2.0640045339 2.5996464689 7.301407011 1.2685006675 0.70796954573 8.7866659307
          6.6031986144 3.2742048181 8.4093920951 5.5255693109 4.6623985543 6.8570709185
          5.1571833332 3.5959663869 0.76091976985 1.0627862003 1.9440540982 8.5260063736
          7.9874833306 4.975837915 3.7875760671 6.8473598286 4.0691843248 4.6324702585
          4.4362736451 3.4491762234 6.5188833637 1.8720250264 2.9067690048 -0.4638799062
          5.5496008729 3.5486883731 4.5670251338 -0.41967398729 2.926843663 0.51038317412
          3.1643505745 5.7181503808 7.5050557492 1.2690853723 5.021102534 4.882112235
          2.4444523392 4.6765199653 3.5582852241 2.4104444275 5.0717138187 0.48559260123
          -5.0995813283 5.0933294958 6.1236254093 5.3190408325 4.7923590486 3.4906906374
          2.2296805039 3.7828029655 4.6941873402 2.5497862905 5.142192708 1.781599408
          2.6681844222 6.0066557811 6.419335774 7.8465142356 -2.1318797087 2.9146277671
          3.606638414 3.6447348656 3.183208536 4.3216851934 8.3326527145 5.9310969004
          7.8106579848 6.896907593 4.3766546528 1.1146810517 7.3474410072 4.5706254343
          4.5010305004 0.55072821011 2.6792054518 1.8104004727 4.0653949108 5.9613292808
          7.3233037862 4.3929963814 5.1981167982 8.2597788185 3.5940575425 5.88002533
          2.2932426908 0.0073931227727 4.6758243193 5.4506679772 4.6358805468 2.3468591512
          5.323079447 6.4413019226 1.6974932961 2.7654476499 0.95440062884 1.7926236617
          5.6406810075 3.5944432552 5.0864529235 6.5565969985 3.460208118 5.6805759242
          8.3734793784 3.8106630316 7.7278027072 3.7397310786 0.4893637992 5.5076755587
          4.5321192689 1.9895843906 5.8401168488 7.4553910289 9.2715140728 6.8825635993
          5.2254077369 6.0249296235 6.2277743566 -2.5814228583 1.0164438129 4.1957928204
          6.8099548782 8.177832654 8.0100602716 9.3905722201 0.15055177921 5.2474260576
          4.6931437186 3.6973532967 4.8204876265 5.0289830749 2.4483621758 5.1041021765
          4.6005691467 7.9988273522 6.2658425253 4.5531122689 6.4017818957 5.8353871743
          5.0189178654 -3.4421700461 0.61631311948 3.0829600472 3.9869887118 5.273731218
          6.8999178387 7.0189207825 3.0466784581 -1.2934942108 7.1005933089 3.3820131348
          6.0629045511 4.0254930761 4.4244660756 1.7197266827 4.5919168362 7.6078216481
          7.1776465204 7.4118653469 -0.020339870619 5.6017016257 3.2068357491 4.1791025797
          6.0525164024 6.3950478348 6.4413545155 5.6226919105 7.139913987 6.038020412
          4.4231789314 2.7905900575 8.5962556354 2.1387422925 4.2528391769 6.8602988974
          7.6549647034 0.05318472294 4.2879402313 6.5638232325 4.4692619458 7.5836641003
          5.0763318639 3.5040519971 3.0494466671 8.3397487765 -8.7166212423 3.163087955
          3.3459935208 4.669115428 6.8823586226 2.2607119272 6.0111685733 3.2711690869
          3.9253211784 1.070615972 8.7878956778 0.99446910935 7.4126814034 2.3657853715
          6.3614099697 7.0586306928 9.6704039944 3.4646178724 6.7290489423 2.5462494506
          3.4330315259 1.4563046506 4.9040339772 6.1458134174 5.8491353997 7.2319191575
          5.1548903358 7.533566932 5.4303496613 -0.55869420858 3.3383194619 2.7452315735
          7.0405986846 -0.81823127224 4.0893859327 4.4729652806 3.9899963558 2.2176105562
          8.6478712661 4.167148983 2.6691120848 4.491268761 3.2550733252 6.0178559976
          0.63265757993 4.251384002 4.4941381755 6.2683835994 5.2082356537 6.6093828894
          3.8511883448 1.3331199324 3.6627095306 4.8222415857 6.839169522 1.181725806
          1.486167648 8.2890750442 7.2413669882 7.1188228888 7.3535447564 5.8501691707
          3.6119477566 4.1431332537 -0.3250488924 2.531227222 3.2728046781 5.7374061807
          2.4565986741 7.4496164586 5.6026438124 -0.23889615085 7.3318098305 5.0071930502
          4.93939793 3.2267162479 -1.7654142351 3.0308049504 9.6833626916 -0.39184863945
          0.038999754556 6.8077512505 -0.27717104257 6.1566252792 4.9766438721 4.5136367606
          0.73830601908 -2.9853086443 0.19339688731 7.1402150433 -0.74212399871 6.8551179068
          4.433577685 5.4575196734 6.5326653369 4.9851583403 0.26601006146 1.5979523283
          -0.2565585219 -2.4587843038 3.784099233 4.2312748825 3.6789810073 4.740055091
          6.3076723849 7.5241115014 3.6419949668 -0.73531891613 3.7731583386 4.7040784188
          2.9580303306 8.7790568581 -1.0255717654 5.9500199821 6.136452318 4.6611473962
          6.0434432813 8.0278642497 5.1131866259 3.4417732279 7.9321599096 8.20365034
          5.1852956924 2.6257502383 6.1052697473 8.9313127956 7.6805338175 4.5444959981
          6.5484009959 1.9307228689 4.3722363447 8.4393226754 5.6911725029 1.0636566048
          3.7988573335 5.1297138094 6.0731371156 6.9732211296 4.7315463501 2.9202603456
          5.2269156749 3.3878726891 4.5660501307 5.7607778622 0.77938325756 3.0207666994
          5.2538801168 8.0401690686 9.5936079352 5.6115457532 4.4694498178 5.2655929247
          4.64303642 5.1442796864 -1.2411273615 6.6002917696 4.0651436099 1.282001378
          7.1294367538 6.8578230127 6.0477406185 4.0969065879 4.5815752561 3.0268161805
          2.8044999901 5.6094486083 2.3336166435 -7.261135888 6.4606895586 4.4206301986
          9.2208204313 5.2867288181 4.8656754566 4.4601892156 3.3275337043 2.6934009533
          -6.0226996941 8.5081157532 0.96986478714 2.859131534 7.6514654845 0.56226004192
          4.9661336667 5.9073395055 4.2256589691 -0.047071854113 1.4518884888 3.1750572632