ITEM: TIMESTEP
0
ITEM: NUMBER OF ATOMS
100
ITEM: BOX BOUNDS pp pp pp
0.0000000000000000e+00 1.0745699318235420e+01
0.0000000000000000e+00 9.3060485910209962e+00
-5.3728496591177100e-01 5.3728496591177100e-01
ITEM: ATOMS id type xs ys zs
1 1 0.983217 0.979844 0.5
2 1 0.0657623 0.0936635 0.5
3 1 0.0854524 0.00470545 0.5
4 1 0.163077 0.117367 0.5
5 1 0.211761 0.0157338 0.5
6 1 0.235672 0.0791706 0.5
7 1 0.288496 0.014369 0.5
8 1 0.3438 0.100299 0.5
9 1 0.407066 0.992051 0.5
10 1 0.432464 0.0793816 0.5
11 1 0.505303 0.0160663 0.5
12 1 0.564299 0.102683 0.5
13 1 0.602456 0.99604 0.5
14 1 0.642379 0.106432 0.5
15 1 0.704027 0.983634 0.5
16 1 0.767873 0.0868367 0.5
17 1 0.807641 0.979084 0.5
18 1 0.836188 0.0852615 0.5
19 1 0.889206 0.989463 0.5
20 1 0.945525 0.0801044 0.5
21 1 0.00144032 0.204216 0.5
22 1 0.034654 0.307306 0.5
23 1 0.0839059 0.214198 0.5
24 1 0.154731 0.283443 0.5
25 1 0.212387 0.184589 0.5
26 1 0.263182 0.3054 0.5
27 1 0.308837 0.19218 0.5
28 1 0.335106 0.283408 0.5
29 1 0.406568 0.190571 0.5
30 1 0.455017 0.313915 0.5
31 1 0.507129 0.198435 0.5
32 1 0.544172 0.285712 0.5
33 1 0.593523 0.187763 0.5
34 1 0.647986 0.288047 0.5
35 1 0.696701 0.213278 0.5
36 1 0.760493 0.287137 0.5
37 1 0.792022 0.195245 0.5
38 1 0.835077 0.291909 0.5
39 1 0.889396 0.215811 0.5
40 1 0.93482 0.311066 0.5
41 1 0.00371137 0.389802 0.5
42 1 0.0642663 0.489746 0.5
43 1 0.113288 0.407637 0.5
44 1 0.137806 0.479779 0.5
45 1 0.206511 0.390785 0.5
46 1 0.26175 0.498552 0.5
47 1 0.298989 0.389981 0.5
48 1 0.335364 0.517484 0.5
49 1 0.4072 0.413453 0.5
50 1 0.438474 0.481723 0.5
51 1 0.509429 0.405231 0.5
52 1 0.536649 0.481658 0.5
53 1 0.588697 0.415468 0.5
54 1 0.634066 0.480499 0.5
55 1 0.687776 0.40193 0.5
56 1 0.760379 0.513216 0.5
57 1 0.814642 0.400479 0.5
58 1 0.862784 0.501855 0.5
59 1 0.899131 0.414046 0.5
60 1 0.947452 0.510089 0.5
61 1 0.990601 0.583544 0.5
62 1 0.0405312 0.690649 0.5
63 1 0.097964 0.609459 0.5
64 1 0.132361 0.694368 0.5
65 1 0.204874 0.61132 0.5
66 1 0.231762 0.694305 0.5
67 1 0.317037 0.61075 0.5
68 1 0.361965 0.705574 0.5
69 1 0.39441 0.607991 0.5
70 1 0.45273 0.698342 0.5
71 1 0.485399 0.611878 0.5
72 1 0.550915 0.687497 0.5
73 1 0.590215 0.605413 0.5
74 1 0.655326 0.694815 0.5
75 1 0.713843 0.618361 0.5
76 1 0.732036 0.711101 0.5
77 1 0.802352 0.620679 0.5
78 1 0.867429 0.68416 0.5
79 1 0.913439 0.599128 0.5
80 1 0.960042 0.698478 0.5
81 1 0.00581525 0.794235 0.5
82 1 0.0435807 0.898351 0.5
83 1 0.0884911 0.79039 0.5
84 1 0.137829 0.892603 0.5
85 1 0.215725 0.819954 0.5
86 1 0.25601 0.889657 0.5
87 1 0.307219 0.787458 0.5
88 1 0.341068 0.89607 0.5
89 1 0.405687 0.813932 0.5
90 1 0.436887 0.909581 0.5
91 1 0.514768 0.811091 0.5
92 1 0.539519 0.885898 0.5
93 1 0.617978 0.8108 0.5
94 1 0.650569 0.920533 0.5
95 1 0.688943 0.781519 0.5
96 1 0.749662 0.889271 0.5
97 1 0.792076 0.802043 0.5
98 1 0.862129 0.914497 0.5
99 1 0.90048 0.794986 0.5
100 1 0.955817 0.89734 0.5
