Setting up log file in filename = /home/xsu2/Downloads/hydro/output/simulation_using_python/hydro_test004/main.log
from selm_lammps.lammps import IPyLammps
For running LAMMPS changing the current working directory to:
/home/xsu2/Downloads/hydro/output/simulation_using_python/hydro_test004
LAMMPS output is captured by PyLammps wrapper
LAMMPS version: 29 Oct 2020 / 20201029
MPI version: LAMMPS MPI STUBS for LAMMPS version 29 Oct 2020
Model files being copied:
src = /home/xsu2/Downloads/hydro/Model1
dst = /home/xsu2/Downloads/hydro/output/simulation_using_python/hydro_test004/
Copying notebook to archive:
src = /home/xsu2/Downloads/hydro/simulation_using_python.py
dst = /home/xsu2/Downloads/hydro/output/simulation_using_python/hydro_test004/archive__simulation_using_python.py
atom_name = structure_pts
num_pts = 2
atom_name = tracer_pts
num_pts = 1331
bond:
KBT = 4.116410956499999
r0 = 20
bond coeff = harmonic 0.0823282 20.000000
Writing model data .pickle
filename = model_setup.pickle
Writing model data .read_data
filename = Model.LAMMPS_read_data
Sending commands to LAMMPs

# =========================================================================
# LAMMPS main parameter file and script                                    
#                                                                          
# Author: Paul J. Atzberger.               
#
# Based on script generated by SELM Model Builder.
#                                                                          
# =========================================================================

# == Setup variables for the script 

variable dumpfreq         equal    1
variable restart          equal    0
variable neighborSkinDist equal    1.0 # distance for bins beyond force cut-off (1.0 = 1.0 Ang for units = real) 
variable baseFilename     universe Model

# == Setup the log file
#log         ${baseFilename}.LAMMPS_logFile

# == Setup style of the run

# type of units to use in the simulation (units used are in fact: amu, nm, ns, Kelvins)
units       nano

# indicates possible types allowed for interactions between the atoms
atom_style  angle 

# indicates possible types allowed for bonds between the atoms 
bond_style  hybrid harmonic

# indicates possible types allowed for bond angles between the atoms 
angle_style none

# indicates type of boundary conditions in each direction (p = periodic) 
boundary p p p 

read_data ${baseFilename}.LAMMPS_read_data # file of atomic coordinates and topology
velocity all zero linear                   # initialize all atomic velocities initially to zero

# == Interactions 
pair_style none
atom_modify sort 1000 ${neighborSkinDist}          # setup sort data explicitly since no interactions to set this data. 

# == Setup neighbor list distance
comm_style tiled
comm_modify mode single cutoff 202.0 vel yes

neighbor ${neighborSkinDist} bin                    # first number gives a distance beyond the force cut-off ${neighborSkinDist}
neigh_modify every 1
atom_modify sort 0 ${neighborSkinDist}           # setup sort data explicitly since no interactions to set this data. 

# == Setup the SELM integrator
fix 1 all selm Main.SELM_params
LAMMPS (29 Oct 2020)
Reading data file ...
  triclinic box = (-202.00000 -202.00000 -202.00000) to (202.00000 202.00000 202.00000) with tilt (0.0000000 0.0000000 0.0000000)
  1 by 1 by 1 MPI processor grid
  reading atoms ...
  1333 atoms
  scanning bonds ...
  1 = max bonds/atom
  reading bonds ...
  2 bonds
Finding 1-2 1-3 1-4 neighbors ...
  special bond factors lj:    0.0      0.0      0.0     
  special bond factors coul:  0.0      0.0      0.0     
     2 = max # of 1-2 neighbors
     2 = max # of 1-3 neighbors
     4 = max # of 1-4 neighbors
     1 = max # of special neighbors
  special bonds CPU = 0.001 seconds
  read_data CPU = 0.007 seconds

USER-SELM Package (SVN Version = 3389:3407, Compile Date-Time = Tue Jun 28 16:58:40 UTC 2022) 
For examples and additional information see http://mango-selm.org/
Simulation Start Date-Time = 12-24-2023 20:14:41

# note langevin just computes forces, nve integrates the motions
#fix 1 all langevin 298.15 298.15 0.00001 48279
#fix 2 all nve

# == Setup output data write to disk
dump        dmp_vtk all vtk ${dumpfreq} ./vtk/Particles_*.vtp id type vx fx
dump_modify dmp_vtk pad 8 # ensures filenames file_000000.data

# == simulation time-stepping
timestep 6

# == Run the simulation
run      300 upto

# == Write restart data
write_restart ${baseFilename}.LAMMPS_restart_data
Done
Making directory: ./ 
Making directory: .//sim_data 
Neighbor list info ...
  update every 1 steps, delay 10 steps, check yes
  max neighbors/atom: 2000, page size: 100000
  master list distance cutoff = 0
  ghost atom cutoff = 202
  binsize = 404, bins = 1 1 1
  0 neighbor lists, perpetual/occasional/extra = 0 0 0
Setting up Verlet run ...
  Unit style    : nano
  Current step  : 0
  Time step     : 6.0
WARNING: Bond/angle/dihedral extent > half of periodic box length (../domain.cpp:933)
Per MPI rank memory allocation (min/avg/max) = 4.195 | 4.195 | 4.195 Mbytes
Step Temp E_pair E_mol TotEng Press Volume 
       0            0            0    5334.8674    5334.8674 -5.9930205e-05     65939264 
     300 8.4986296e-07            0    3.1842633    3.1842867 -1.7860963e-07     65939264 
Loop time of 131.229 on 1 procs for 300 steps with 1333 atoms

Performance: 1185106.457 ns/day, 0.000 hours/ns, 2.286 timesteps/s
97.1% CPU use with 1 MPI tasks x no OpenMP threads

MPI task timing breakdown:
Section |  min time  |  avg time  |  max time  |%varavg| %total
---------------------------------------------------------------
Pair    | 0          | 0          | 0          |   0.0 |  0.00
Bond    | 0.00086355 | 0.00086355 | 0.00086355 |   0.0 |  0.00
Neigh   | 0.00053263 | 0.00053263 | 0.00053263 |   0.0 |  0.00
Comm    | 0.15975    | 0.15975    | 0.15975    |   0.0 |  0.12
Output  | 2.764      | 2.764      | 2.764      |   0.0 |  2.11
Modify  | 128.29     | 128.29     | 128.29     |   0.0 | 97.76
Other   |            | 0.01046    |            |       |  0.01

Nlocal:        1333.00 ave        1333 max        1333 min
Histogram: 1 0 0 0 0 0 0 0 0 0
Nghost:        9331.00 ave        9331 max        9331 min
Histogram: 1 0 0 0 0 0 0 0 0 0
Neighs:        0.00000 ave           0 max           0 min
Histogram: 1 0 0 0 0 0 0 0 0 0

Total # of neighbors = 0
Ave neighs/atom = 0.0000000
Ave special neighs/atom = 0.0015003751
Neighbor list builds = 26
Dangerous builds = 21
System init for write_restart ...

Please see the log.cite file for references relevant to this simulation

Total wall time: 0:02:11
