<?xml version="1.0"?>
<VTKFile type="PolyData" version="0.1" byte_order="LittleEndian" header_type="UInt32" compressor="vtkZLibDataCompressor">
  <PolyData>
    <Piece NumberOfPoints="1333" NumberOfVerts="1333" NumberOfLines="0" NumberOfStrips="0" NumberOfPolys="0">
      <PointData>
        <DataArray type="Int32" Name="id" format="ascii" RangeMin="1" RangeMax="1333">
          1 2 3 4 5 6
          7 8 9 10 11 12
          13 14 15 16 17 18
          19 20 21 22 23 24
          25 26 27 28 29 30
          31 32 33 34 35 36
          37 38 39 40 41 42
          43 44 45 46 47 48
          49 50 51 52 53 54
          55 56 57 58 59 60
          61 62 63 64 65 66
          67 68 69 70 71 72
          73 74 75 76 77 78
          79 80 81 82 83 84
          85 86 87 88 89 90
          91 92 93 94 95 96
          97 98 99 100 101 102
          103 104 105 106 107 108
          109 110 111 112 113 114
          115 116 117 118 119 120
          121 122 123 124 125 126
          127 128 129 130 131 132
          133 134 135 136 137 138
          139 140 141 142 143 144
          145 146 147 148 149 150
          151 152 153 154 155 156
          157 158 159 160 161 162
          163 164 165 166 167 168
          169 170 171 172 173 174
          175 176 177 178 179 180
          181 182 183 184 185 186
          187 188 189 190 191 192
          193 194 195 196 197 198
          199 200 201 202 203 204
          205 206 207 208 209 210
          211 212 213 214 215 216
          217 218 219 220 221 222
          223 224 225 226 227 228
          229 230 231 232 233 234
          235 236 237 238 239 240
          241 242 243 244 245 246
          247 248 249 250 251 252
          253 254 255 256 257 258
          259 260 261 262 263 264
          265 266 267 268 269 270
          271 272 273 274 275 276
          277 278 279 280 281 282
          283 284 285 286 287 288
          289 290 291 292 293 294
          295 296 297 298 299 300
          301 302 303 304 305 306
          307 308 309 310 311 312
          313 314 315 316 317 318
          319 320 321 322 323 324
          325 326 327 328 329 330
          331 332 333 334 335 336
          337 338 339 340 341 342
          343 344 345 346 347 348
          349 350 351 352 353 354
          355 356 357 358 359 360
          361 362 363 364 365 366
          367 368 369 370 371 372
          373 374 375 376 377 378
          379 380 381 382 383 384
          385 386 387 388 389 390
          391 392 393 394 395 396
          397 398 399 400 401 402
          403 404 405 406 407 408
          409 410 411 412 413 414
          415 416 417 418 419 420
          421 422 423 424 425 426
          427 428 429 430 431 432
          433 434 435 436 437 438
          439 440 441 442 443 444
          445 446 447 448 449 450
          451 452 453 454 455 456
          457 458 459 460 461 462
          463 464 465 466 467 468
          469 470 471 472 473 474
          475 476 477 478 479 480
          481 482 483 484 485 486
          487 488 489 490 491 492
          493 494 495 496 497 498
          499 500 501 502 503 504
          505 506 507 508 509 510
          511 512 513 514 515 516
          517 518 519 520 521 522
          523 524 525 526 527 528
          529 530 531 532 533 534
          535 536 537 538 539 540
          541 542 543 544 545 546
          547 548 549 550 551 552
          553 554 555 556 557 558
          559 560 561 562 563 564
          565 566 567 568 569 570
          571 572 573 574 575 576
          577 578 579 580 581 582
          583 584 585 586 587 588
          589 590 591 592 593 594
          595 596 597 598 599 600
          601 602 603 604 605 606
          607 608 609 610 611 612
          613 614 615 616 617 618
          619 620 621 622 623 624
          625 626 627 628 629 630
          631 632 633 634 635 636
          637 638 639 640 641 642
          643 644 645 646 647 648
          649 650 651 652 653 654
          655 656 657 658 659 660
          661 662 663 664 665 666
          667 668 669 670 671 672
          673 674 675 676 677 678
          679 680 681 682 683 684
          685 686 687 688 689 690
          691 692 693 694 695 696
          697 698 699 700 701 702
          703 704 705 706 707 708
          709 710 711 712 713 714
          715 716 717 718 719 720
          721 722 723 724 725 726
          727 728 729 730 731 732
          733 734 735 736 737 738
          739 740 741 742 743 744
          745 746 747 748 749 750
          751 752 753 754 755 756
          757 758 759 760 761 762
          763 764 765 766 767 768
          769 770 771 772 773 774
          775 776 777 778 779 780
          781 782 783 784 785 786
          787 788 789 790 791 792
          793 794 795 796 797 798
          799 800 801 802 803 804
          805 806 807 808 809 810
          811 812 813 814 815 816
          817 818 819 820 821 822
          823 824 825 826 827 828
          829 830 831 832 833 834
          835 836 837 838 839 840
          841 842 843 844 845 846
          847 848 849 850 851 852
          853 854 855 856 857 858
          859 860 861 862 863 864
          865 866 867 868 869 870
          871 872 873 874 875 876
          877 878 879 880 881 882
          883 884 885 886 887 888
          889 890 891 892 893 894
          895 896 897 898 899 900
          901 902 903 904 905 906
          907 908 909 910 911 912
          913 914 915 916 917 918
          919 920 921 922 923 924
          925 926 927 928 929 930
          931 932 933 934 935 936
          937 938 939 940 941 942
          943 944 945 946 947 948
          949 950 951 952 953 954
          955 956 957 958 959 960
          961 962 963 964 965 966
          967 968 969 970 971 972
          973 974 975 976 977 978
          979 980 981 982 983 984
          985 986 987 988 989 990
          991 992 993 994 995 996
          997 998 999 1000 1001 1002
          1003 1004 1005 1006 1007 1008
          1009 1010 1011 1012 1013 1014
          1015 1016 1017 1018 1019 1020
          1021 1022 1023 1024 1025 1026
          1027 1028 1029 1030 1031 1032
          1033 1034 1035 1036 1037 1038
          1039 1040 1041 1042 1043 1044
          1045 1046 1047 1048 1049 1050
          1051 1052 1053 1054 1055 1056
          1057 1058 1059 1060 1061 1062
          1063 1064 1065 1066 1067 1068
          1069 1070 1071 1072 1073 1074
          1075 1076 1077 1078 1079 1080
          1081 1082 1083 1084 1085 1086
          1087 1088 1089 1090 1091 1092
          1093 1094 1095 1096 1097 1098
          1099 1100 1101 1102 1103 1104
          1105 1106 1107 1108 1109 1110
          1111 1112 1113 1114 1115 1116
          1117 1118 1119 1120 1121 1122
          1123 1124 1125 1126 1127 1128
          1129 1130 1131 1132 1133 1134
          1135 1136 1137 1138 1139 1140
          1141 1142 1143 1144 1145 1146
          1147 1148 1149 1150 1151 1152
          1153 1154 1155 1156 1157 1158
          1159 1160 1161 1162 1163 1164
          1165 1166 1167 1168 1169 1170
          1171 1172 1173 1174 1175 1176
          1177 1178 1179 1180 1181 1182
          1183 1184 1185 1186 1187 1188
          1189 1190 1191 1192 1193 1194
          1195 1196 1197 1198 1199 1200
          1201 1202 1203 1204 1205 1206
          1207 1208 1209 1210 1211 1212
          1213 1214 1215 1216 1217 1218
          1219 1220 1221 1222 1223 1224
          1225 1226 1227 1228 1229 1230
          1231 1232 1233 1234 1235 1236
          1237 1238 1239 1240 1241 1242
          1243 1244 1245 1246 1247 1248
          1249 1250 1251 1252 1253 1254
          1255 1256 1257 1258 1259 1260
          1261 1262 1263 1264 1265 1266
          1267 1268 1269 1270 1271 1272
          1273 1274 1275 1276 1277 1278
          1279 1280 1281 1282 1283 1284
          1285 1286 1287 1288 1289 1290
          1291 1292 1293 1294 1295 1296
          1297 1298 1299 1300 1301 1302
          1303 1304 1305 1306 1307 1308
          1309 1310 1311 1312 1313 1314
          1315 1316 1317 1318 1319 1320
          1321 1322 1323 1324 1325 1326
          1327 1328 1329 1330 1331 1332
          1333
        </DataArray>
        <DataArray type="Int32" Name="type" format="ascii" RangeMin="1" RangeMax="2">
          1 1 2 2 2 2
          2 2 2 2 2 2
          2 2 2 2 2 2
          2 2 2 2 2 2
          2 2 2 2 2 2
          2 2 2 2 2 2
          2 2 2 2 2 2
          2 2 2 2 2 2
          2 2 2 2 2 2
          2 2 2 2 2 2
          2 2 2 2 2 2
          2 2 2 2 2 2
          2 2 2 2 2 2
          2 2 2 2 2 2
          2 2 2 2 2 2
          2 2 2 2 2 2
          2 2 2 2 2 2
          2 2 2 2 2 2
          2 2 2 2 2 2
          2 2 2 2 2 2
          2 2 2 2 2 2
          2 2 2 2 2 2
          2 2 2 2 2 2
          2 2 2 2 2 2
          2 2 2 2 2 2
          2 2 2 2 2 2
          2 2 2 2 2 2
          2 2 2 2 2 2
          2 2 2 2 2 2
          2 2 2 2 2 2
          2 2 2 2 2 2
          2 2 2 2 2 2
          2 2 2 2 2 2
          2 2 2 2 2 2
          2 2 2 2 2 2
          2 2 2 2 2 2
          2 2 2 2 2 2
          2 2 2 2 2 2
          2 2 2 2 2 2
          2 2 2 2 2 2
          2 2 2 2 2 2
          2 2 2 2 2 2
          2 2 2 2 2 2
          2 2 2 2 2 2
          2 2 2 2 2 2
          2 2 2 2 2 2
          2 2 2 2 2 2
          2 2 2 2 2 2
          2 2 2 2 2 2
          2 2 2 2 2 2
          2 2 2 2 2 2
          2 2 2 2 2 2
          2 2 2 2 2 2
          2 2 2 2 2 2
          2 2 2 2 2 2
          2 2 2 2 2 2
          2 2 2 2 2 2
          2 2 2 2 2 2
          2 2 2 2 2 2
          2 2 2 2 2 2
          2 2 2 2 2 2
          2 2 2 2 2 2
          2 2 2 2 2 2
          2 2 2 2 2 2
          2 2 2 2 2 2
          2 2 2 2 2 2
          2 2 2 2 2 2
          2 2 2 2 2 2
          2 2 2 2 2 2
          2 2 2 2 2 2
          2 2 2 2 2 2
          2 2 2 2 2 2
          2 2 2 2 2 2
          2 2 2 2 2 2
          2 2 2 2 2 2
          2 2 2 2 2 2
          2 2 2 2 2 2
          2 2 2 2 2 2
          2 2 2 2 2 2
          2 2 2 2 2 2
          2 2 2 2 2 2
          2 2 2 2 2 2
          2 2 2 2 2 2
          2 2 2 2 2 2
          2 2 2 2 2 2
          2 2 2 2 2 2
          2 2 2 2 2 2
          2 2 2 2 2 2
          2 2 2 2 2 2
          2 2 2 2 2 2
          2 2 2 2 2 2
          2 2 2 2 2 2
          2 2 2 2 2 2
          2 2 2 2 2 2
          2 2 2 2 2 2
          2 2 2 2 2 2
          2 2 2 2 2 2
          2 2 2 2 2 2
          2 2 2 2 2 2
          2 2 2 2 2 2
          2 2 2 2 2 2
          2 2 2 2 2 2
          2 2 2 2 2 2
          2 2 2 2 2 2
          2 2 2 2 2 2
          2 2 2 2 2 2
          2 2 2 2 2 2
          2 2 2 2 2 2
          2 2 2 2 2 2
          2 2 2 2 2 2
          2 2 2 2 2 2
          2 2 2 2 2 2
          2 2 2 2 2 2
          2 2 2 2 2 2
          2 2 2 2 2 2
          2 2 2 2 2 2
          2 2 2 2 2 2
          2 2 2 2 2 2
          2 2 2 2 2 2
          2 2 2 2 2 2
          2 2 2 2 2 2
          2 2 2 2 2 2
          2 2 2 2 2 2
          2 2 2 2 2 2
          2 2 2 2 2 2
          2 2 2 2 2 2
          2 2 2 2 2 2
          2 2 2 2 2 2
          2 2 2 2 2 2
          2 2 2 2 2 2
          2 2 2 2 2 2
          2 2 2 2 2 2
          2 2 2 2 2 2
          2 2 2 2 2 2
          2 2 2 2 2 2
          2 2 2 2 2 2
          2 2 2 2 2 2
          2 2 2 2 2 2
          2 2 2 2 2 2
          2 2 2 2 2 2
          2 2 2 2 2 2
          2 2 2 2 2 2
          2 2 2 2 2 2
          2 2 2 2 2 2
          2 2 2 2 2 2
          2 2 2 2 2 2
          2 2 2 2 2 2
          2 2 2 2 2 2
          2 2 2 2 2 2
          2 2 2 2 2 2
          2 2 2 2 2 2
          2 2 2 2 2 2
          2 2 2 2 2 2
          2 2 2 2 2 2
          2 2 2 2 2 2
          2 2 2 2 2 2
          2 2 2 2 2 2
          2 2 2 2 2 2
          2 2 2 2 2 2
          2 2 2 2 2 2
          2 2 2 2 2 2
          2 2 2 2 2 2
          2 2 2 2 2 2
          2 2 2 2 2 2
          2 2 2 2 2 2
          2 2 2 2 2 2
          2 2 2 2 2 2
          2 2 2 2 2 2
          2 2 2 2 2 2
          2 2 2 2 2 2
          2 2 2 2 2 2
          2 2 2 2 2 2
          2 2 2 2 2 2
          2 2 2 2 2 2
          2 2 2 2 2 2
          2 2 2 2 2 2
          2 2 2 2 2 2
          2 2 2 2 2 2
          2 2 2 2 2 2
          2 2 2 2 2 2
          2 2 2 2 2 2
          2 2 2 2 2 2
          2 2 2 2 2 2
          2 2 2 2 2 2
          2 2 2 2 2 2
          2 2 2 2 2 2
          2 2 2 2 2 2
          2 2 2 2 2 2
          2 2 2 2 2 2
          2 2 2 2 2 2
          2 2 2 2 2 2
          2 2 2 2 2 2
          2 2 2 2 2 2
          2 2 2 2 2 2
          2 2 2 2 2 2
          2 2 2 2 2 2
          2 2 2 2 2 2
          2 2 2 2 2 2
          2 2 2 2 2 2
          2 2 2 2 2 2
          2 2 2 2 2 2
          2 2 2 2 2 2
          2 2 2 2 2 2
          2 2 2 2 2 2
          2 2 2 2 2 2
          2 2 2 2 2 2
          2 2 2 2 2 2
          2 2 2 2 2 2
          2 2 2 2 2 2
          2 2 2 2 2 2
          2 2 2 2 2 2
          2 2 2 2 2 2
          2 2 2 2 2 2
          2 2 2 2 2 2
          2 2 2 2 2 2
          2 2 2 2 2 2
          2 2 2 2 2 2
          2 2 2 2 2 2
          2 2 2 2 2 2
          2 2 2 2 2 2
          2 2 2 2 2 2
          2 2 2 2 2 2
          2
        </DataArray>
        <DataArray type="Float64" Name="vx" format="ascii" RangeMin="-0.0050182763077" RangeMax="0.0050002313928">
          0.0050002313928 -0.0050182763077 -2.371373894e-06 -5.1777921377e-07 -2.4043434368e-05 -2.4728169542e-05
          -2.5970635015e-05 2.1566141371e-06 9.1610888258e-06 -4.2192896503e-06 -9.6201839262e-06 -2.6182039567e-06
          4.3490219207e-06 -2.0644920022e-05 -3.4616374778e-05 -5.1891972269e-05 -3.9349723391e-05 -2.5212155769e-05
          -1.9114448533e-05 -1.1490896477e-05 -2.2459278727e-05 -1.5180542018e-05 -2.4684996096e-05 -1.4278863506e-05
          3.4380230017e-06 -4.9795599944e-05 -4.2308347254e-05 -5.0675975839e-05 -2.2774419338e-05 -1.4178301117e-05
          -2.7123995038e-05 -3.8487462686e-05 -3.8774637e-05 -1.0643260459e-05 -2.0906562642e-05 -4.56350981e-05
          -2.582105047e-05 -4.6939266534e-05 -3.5686716504e-05 -6.0476914209e-05 -4.2113775775e-05 -4.7279503857e-05
          -2.2208715288e-05 -4.9960325867e-05 -2.8912325272e-05 -1.994909679e-05 -2.719164749e-05 -1.0516376294e-05
          -2.0257552983e-05 -2.6897346765e-05 -4.5196525776e-05 -6.2456704675e-05 -1.0354910125e-05 -1.4224949881e-05
          -5.1342162567e-05 -8.790063886e-06 1.0649084672e-05 -6.9195098663e-06 7.3641981454e-06 5.3450307646e-06
          -1.0838190579e-05 -6.9312362521e-06 -6.3731236463e-06 -4.1823416829e-06 1.5160649423e-06 8.6717127724e-06
          1.4909230207e-05 -5.3072134326e-06 1.2143298995e-05 2.5318481859e-06 2.4533129841e-05 -2.0208555699e-06
          4.0962758025e-05 4.6702770003e-05 1.2712660452e-05 4.5077744413e-06 4.8799473828e-05 3.3563859847e-05
          2.4160838319e-05 2.3752650955e-05 1.4744555917e-05 1.5843575762e-05 2.4637278108e-05 4.0467298415e-05
          1.7713563003e-05 4.7782720538e-05 3.0136062871e-05 6.1371137315e-05 7.3934784567e-05 5.7004320005e-05
          5.8063387276e-05 5.4175847546e-05 3.221525428e-05 2.1424408055e-05 4.9175460453e-05 4.4623652804e-05
          1.1961110133e-05 3.9056977552e-05 4.770959783e-05 4.2654393176e-05 3.5731317887e-05 2.1549056031e-05
          1.9790762531e-05 1.8033869727e-05 5.0441924222e-05 3.5549957843e-05 3.8283829104e-05 -5.0479980542e-07
          -7.9744981784e-06 3.2807232181e-05 3.9219449797e-05 2.2093425292e-05 3.7123520869e-05 1.6473545203e-05
          6.4883111711e-06 -3.0695937342e-06 2.0176430887e-05 3.6996140704e-06 2.5553936049e-05 -3.821970183e-07
          4.8079962801e-06 3.3381328919e-05 1.1152009179e-05 -1.4452950634e-05 -2.799304816e-05 -3.1009906533e-05
          -3.4962695247e-05 -3.2392074501e-06 1.1943452398e-05 -1.0479589839e-05 5.2931803513e-06 3.4111587713e-06
          -8.7430729063e-06 9.2516635648e-06 -2.0286297196e-05 -5.9918209081e-05 -2.2758033545e-05 -1.3872285454e-05
          -1.1625105299e-05 1.8640416297e-06 5.4613821198e-06 -1.3608008381e-05 -1.0805613903e-05 -2.8673430894e-05
          -1.834690162e-05 -5.6080656703e-05 -4.0688132081e-05 -4.1681609964e-05 -2.8568060808e-05 -3.342002263e-05
          -2.2638442158e-05 -1.2937835962e-05 -1.5105933368e-05 -4.0674377498e-05 -4.0579594919e-05 -5.2351466317e-05
          -4.8815083072e-05 -4.9241568693e-05 -1.5978617562e-05 -4.413504713e-05 -3.3810330581e-05 -9.227410575e-06
          -3.1650110667e-05 -2.0409473132e-05 -2.6370542187e-05 -3.9632215071e-05 -5.4320358545e-05 -3.0471026927e-05
          -1.7544745047e-05 -2.9887244463e-05 -1.1069628067e-05 -5.3626900493e-05 -5.8868980505e-06 2.8241073402e-08
          -1.525464401e-05 -1.4219036635e-05 -4.0165558304e-05 -2.2988063058e-05 -1.0257995518e-05 -1.3409648007e-05
          -1.1249325287e-05 1.1682891322e-05 8.0069151926e-06 1.9703152956e-05 1.1765060284e-05 1.6849592608e-05
          5.6710562458e-06 -5.956413744e-06 -2.4552124026e-05 1.2562740983e-05 2.3196059979e-05 3.3494912038e-05
          4.5239205982e-05 1.3164173188e-05 3.4465841408e-05 3.300797886e-05 3.8209565391e-05 2.8228906333e-05
          5.1701819541e-05 1.2335680012e-05 4.3343622292e-05 4.4391182145e-05 4.9266253872e-05 3.5880952398e-05
          6.0787184601e-05 6.3604317946e-05 4.7182982374e-05 2.4290710327e-05 5.160645561e-05 2.4511679953e-05
          3.2973941178e-05 3.4568411936e-05 4.0282999649e-05 3.736598786e-05 2.2242848737e-05 3.2121942524e-05
          4.788687036e-05 1.9524611919e-05 1.9235827935e-05 5.8614193951e-05 4.0366771037e-05 3.3805739299e-05
          3.2247558481e-05 2.374228747e-05 1.268884456e-06 1.7211300556e-05 2.2149516597e-05 2.3139790634e-05
          1.5476611381e-05 -9.0997614452e-06 3.3795185808e-05 2.4588242789e-05 3.7124446302e-05 2.66324268e-05
          1.2124698593e-05 -7.7595533916e-06 9.3232872718e-06 1.2766581458e-05 8.9389729847e-06 -7.784195837e-06
          -1.9121709357e-05 2.0838668625e-05 7.4223454257e-06 1.8425266186e-05 1.1671653904e-05 -1.0468365131e-05
          -2.1423310822e-06 2.8941234677e-06 -6.466972505e-06 2.9119105938e-05 7.1659206572e-06 -5.9664095028e-06
          -1.6345865203e-05 -1.4970469133e-05 7.7238452638e-06 -1.6452052813e-05 -2.1990018742e-05 -4.0400305502e-05
          -1.8739278668e-05 -1.9188530132e-05 4.3373742099e-06 -1.3502140446e-06 -1.1910988084e-05 -2.4544493838e-05
          -2.5862452748e-05 -2.0308423225e-05 -2.6775986104e-05 -2.215736004e-05 -2.5445406916e-05 -1.7005450502e-05
          -1.5018019144e-05 1.1523909684e-05 -2.1706063176e-05 -1.5447463763e-05 -2.5679812371e-05 -3.9635738538e-05
          -4.3088432605e-05 -4.7851059213e-05 -4.1035987633e-05 -3.7416834937e-05 -3.3075549858e-05 -5.94239895e-05
          -4.7731857205e-05 -2.1266975061e-05 -1.8815514339e-05 -3.2743630388e-05 -4.0208477923e-05 -6.6649890015e-05
          -2.3764641472e-05 -4.4716741571e-05 -1.2612015327e-05 -3.5852434058e-05 -3.8647882398e-05 -7.3755600759e-05
          -3.8878054897e-05 -2.6172531861e-05 -3.5083139315e-05 -5.3780467837e-05 -4.7565458598e-05 -3.1089132282e-06
          -4.3803397438e-05 -9.7176446393e-06 -3.3846849663e-06 -4.5596084062e-06 -1.130692431e-06 1.5247976744e-05
          1.0968393634e-05 -2.1438364395e-06 -4.8729700202e-06 -5.9279172236e-07 3.1819094719e-05 -2.553038445e-05
          8.000295714e-06 5.5537496512e-05 4.4089500022e-05 7.0800683542e-05 5.5804244184e-05 5.4876075975e-05
          5.4373134708e-05 3.2940640899e-05 8.6185621489e-06 4.0202336681e-07 9.5394076053e-06 2.1590847826e-05
          4.7920734645e-05 3.2486924979e-05 2.7530559648e-05 2.8563293448e-05 5.484571704e-05 5.2814183558e-05
          5.706779971e-05 8.3082185115e-06 2.8318430709e-05 2.1587192871e-06 2.40216405e-05 1.4046385044e-05
          -2.1244310006e-06 -8.5264672856e-06 1.4696562973e-05 2.609088671e-05 2.6191812889e-05 1.0731894147e-05
          4.1775395796e-05 1.659474561e-05 3.6751411616e-06 -3.1599075499e-06 2.4062390272e-05 5.3742889667e-07
          -2.1854944413e-05 4.9229023716e-06 1.1413921699e-05 -9.6632105386e-07 2.6418994336e-05 3.2397925466e-05
          -1.8101778079e-06 1.4260530992e-06 -8.8146745705e-08 5.8461495735e-06 1.5876944145e-05 1.2727591575e-06
          9.5113436273e-06 1.1033082479e-05 8.1710968671e-06 -6.5089215646e-06 -5.9396621735e-06 9.4892443955e-06
          -1.7111268395e-05 -1.5548204176e-05 -2.118071005e-06 7.8671168584e-06 3.6497750583e-05 2.9237890727e-05
          4.5359462668e-05 8.1303486616e-07 -2.6891713984e-05 -3.5433243927e-06 -1.7872190148e-05 -2.5904358216e-05
          -1.4761925075e-05 1.5324545058e-05 3.439275351e-05 6.309670058e-05 6.5755821125e-05 2.9547110049e-05
          -7.8050916081e-07 -2.0224524317e-05 -1.1301552431e-05 -5.2126048656e-05 -3.0910741341e-05 -1.8983611172e-05
          4.0126506916e-06 4.1006220425e-05 8.8850681337e-05 5.0343372303e-05 -9.0367307349e-07 -1.2858378302e-05
          -5.1254642241e-05 -3.3473590652e-05 -2.5885598839e-05 -2.9343948781e-05 -5.2154970492e-05 -2.6461292893e-05
          8.4391890509e-06 1.9189372301e-05 -3.512690851e-06 -1.2883703092e-05 -3.9094023786e-05 -3.2240622297e-05
          -5.3034549637e-05 -9.8631013676e-06 -3.1355728906e-05 -3.3762919501e-05 -6.5385982966e-05 -4.9940920081e-05
          -8.1955641369e-05 -6.2172667527e-05 -5.8025783848e-05 -4.3917480474e-05 -2.3021318602e-05 -1.1183205609e-05
          -6.0218555998e-06 6.6624335206e-06 2.0942041431e-05 8.4142057638e-06 8.3773294959e-06 -1.8517815033e-05
          -1.316252013e-05 1.8392907543e-05 3.7942835268e-06 5.471628529e-06 -5.8527187762e-06 1.5132219294e-05
          1.0630967579e-06 7.2088088048e-05 4.5320982026e-05 6.2705588188e-05 4.440090762e-05 3.549495223e-05
          6.0821518273e-05 2.5406096182e-05 3.8454209808e-05 1.884316671e-07 2.5145884184e-05 2.4463730786e-05
          6.1298462291e-05 2.6840838195e-05 -3.4812246781e-05 -4.6317782319e-05 -3.992555431e-05 3.9011545397e-05
          3.0917531475e-05 5.9559930134e-05 4.7524795909e-05 8.6114895832e-06 1.2811825359e-05 3.9572564455e-05
          1.3423529687e-07 -6.4398652544e-05 -0.00010686248171 -4.9210013994e-05 1.1962178637e-05 2.4365772237e-05
          4.4634556616e-05 4.1684768258e-05 4.2910747176e-06 3.9446830931e-06 1.7373162185e-05 -1.1906257777e-05
          -4.7859017116e-05 -3.4747194213e-05 -4.3334864296e-05 1.1435165413e-05 3.4557107454e-05 1.0620024361e-05
          6.4551252535e-06 2.4431681221e-05 7.3088183632e-06 5.9979976332e-06 -2.0139480194e-05 -2.0023508498e-05
          -6.5214095155e-06 -1.8286005524e-06 1.7858274221e-05 3.1186304323e-06 6.1412820112e-06 1.3905707516e-05
          -1.2019319649e-06 6.9029502044e-06 4.1592193883e-06 1.8339930183e-05 3.8464048889e-05 6.0523162607e-05
          3.9330215919e-05 2.9071036053e-05 -1.9848948639e-07 -3.5524254989e-05 -1.5071851935e-05 -1.4277152126e-05
          -1.5256673281e-05 6.4519684745e-06 3.9532563197e-05 0.00011063563041 9.910357812e-05 9.0132157471e-05
          4.889694438e-05 5.3755703264e-06 -4.0159695929e-05 -1.0388077004e-05 -4.1025003383e-05 -1.4882564818e-05
          -2.8165542885e-05 4.3743582943e-05 0.00019824891997 0.00030965915552 0.00016261174881 6.3927964862e-05
          -3.8920702189e-06 -2.2919952456e-05 -3.4703218446e-05 -3.7989234454e-05 -4.1457038378e-05 -3.4340235542e-05
          5.5582414568e-07 0.0002045081385 0.00044466598849 0.00019064268806 2.1172617681e-05 -1.9809714455e-05
          -3.3348320142e-05 -3.6615117082e-05 -2.6672800356e-05 -4.402804289e-05 -4.8704524215e-05 -8.4671913974e-05
          -4.0551439517e-05 7.6273400289e-05 -4.1147901833e-05 -6.6916644892e-05 -6.2039307607e-05 -1.4536765791e-05
          -3.0887927187e-05 1.7780314354e-06 3.6635711359e-06 8.0496506579e-06 5.4995726469e-06 1.4795604376e-05
          1.8009968912e-05 9.3032793577e-06 1.7354504144e-06 7.6442846636e-06 2.1044596568e-05 -9.5482488569e-06
          8.5600002218e-06 2.7826966792e-05 3.9720840088e-05 7.1023417391e-05 4.2371470833e-05 -6.9906759098e-05
          4.2051217233e-05 6.464211236e-05 7.1901473259e-05 4.6438704664e-05 1.1431634577e-06 2.9761891787e-05
          2.8132242922e-05 5.8663767403e-05 -2.350089575e-05 -0.00021414711551 -0.0004463376801 -0.00020261167172
          -1.5079597611e-05 2.9335801511e-05 3.9631659662e-05 9.7659671717e-06 3.4072678776e-05 3.4198187454e-05
          1.6879478927e-05 -7.8340926742e-05 -0.00019226115605 -0.00032508277549 -0.0002023200417 -8.3333052373e-05
          -2.3293525866e-05 3.7405009621e-05 3.5275797817e-05 3.8115302188e-05 2.9094176867e-05 -1.9858176792e-05
          -4.4524073616e-05 -9.8166382402e-05 -0.00015627364142 -0.00010705798038 -5.1000005463e-05 -3.3241294295e-05
          1.1116346806e-05 1.6887363495e-05 1.66463599e-05 5.0175625218e-06 -3.1390969058e-06 7.1148350656e-07
          -4.2891993137e-05 -2.3988334399e-05 -1.7000408846e-05 -1.8041581279e-05 -2.7948550865e-05 -2.2384786948e-05
          3.4502443987e-06 -4.5604176992e-06 -7.9097276765e-06 8.04260084e-06 3.4004941536e-05 5.8703761084e-05
          5.5327951107e-05 4.2959713099e-05 5.7501184127e-06 -1.9100910237e-05 1.4240810651e-05 1.0951712547e-05
          -2.1395646717e-05 2.3761757404e-06 2.5655016489e-05 4.2772325122e-05 0.00016099453276 0.00019513074872
          0.00014001558789 7.7433705656e-05 -2.0081897083e-06 -2.393370957e-06 -2.2208394478e-05 -3.3313091269e-05
          -9.5894704887e-06 2.1392545456e-05 6.5783786944e-05 0.00033306029908 0.001307170656 0.00031567865721
          9.4653520883e-05 -5.3211320492e-06 -3.8690168101e-05 -4.2682222555e-05 -3.5767927941e-05 -5.3496374913e-05
          -2.4000770146e-05 4.7261377902e-05 0.00043154991007 0.0040398550196 0.00043110845699 5.66486841e-05
          -6.1998192675e-05 -2.4574886887e-05 -5.6423415605e-05 -3.9211975894e-05 -2.122030209e-05 -2.5785815872e-05
          -7.0563801408e-05 7.027845517e-05 0.0026708873941 0.0001039417969 -6.2388244023e-05 -4.2744442286e-05
          -2.3511572694e-05 -3.3737469793e-05 -8.6689225315e-07 1.9015970682e-05 1.0012429868e-05 -4.9964511615e-06
          1.628899953e-05 -1.181571959e-05 6.9122972565e-06 -3.1866766599e-06 8.2489557763e-06 1.2836601832e-05
          -1.9438975405e-05 1.0073495064e-05 4.5664573973e-05 5.2729531182e-05 4.3976525976e-05 -8.2173362964e-05
          -0.0026928812719 -9.6672874392e-05 5.3277615976e-05 4.9293468258e-05 4.1409390798e-05 4.2108918179e-05
          1.8991539848e-05 3.657721329e-05 2.9146141209e-05 -6.504770249e-05 -0.00043309339403 -0.0040592710802
          -0.00046132619401 -5.469979124e-05 3.334554085e-05 5.0643070244e-05 4.301784855e-05 4.9095778849e-05
          2.9044089023e-05 -3.3443845265e-05 -8.6444418865e-05 -0.00031979936291 -0.0013069611609 -0.00035056577833
          -6.8133671293e-05 -2.7832691576e-06 1.7753228679e-05 1.9464063205e-05 3.5737299211e-05 2.4328104785e-05
          -5.0063741054e-05 -3.1580705445e-05 -0.0001526091256 -0.00019942830944 -0.00014164972786 -5.3919843199e-05
          -1.6855063851e-05 1.3623525822e-05 7.1357554961e-06 -1.4301505498e-05 5.9960533976e-06 -1.7622516248e-05
          -8.6493495296e-06 -3.1353154898e-05 -7.0718911355e-05 -5.2785056195e-05 -3.5054708343e-05 -4.3794085457e-06
          -1.421539072e-05 2.1720435479e-05 -1.1642742479e-06 5.9319034729e-06 1.813575914e-06 8.087206059e-06
          5.5548545294e-05 4.5648308971e-05 1.3740767882e-05 -1.9934727878e-05 -7.5508197738e-06 -2.5647137665e-05
          -4.8424091594e-05 -3.5290279342e-05 -8.2017551308e-06 1.8561201608e-06 1.9368150074e-05 9.5823262114e-05
          0.00015775108474 8.5443893299e-05 4.0206471885e-05 -1.071643613e-05 -1.6416556777e-05 -4.4822781792e-05
          -3.6827211622e-05 -1.7150926656e-05 -5.4035055541e-06 3.6601539753e-05 0.00018369531969 0.00033122171816
          0.00016519086453 6.208969596e-05 6.4879692023e-06 -3.7778627699e-06 -4.0367286313e-05 -4.2383345329e-05
          -1.5552353895e-05 -1.8026623686e-05 3.7659119915e-06 0.0001893869535 0.00044723678032 0.0001608647079
          2.682315737e-05 -3.1049710996e-05 -2.1766069031e-05 -3.593455597e-05 -5.1233063768e-05 -3.9085471485e-05
          -5.8407544986e-05 -7.1144130811e-05 -4.2745477516e-05 8.8137339884e-05 -2.7684223134e-05 -6.4153828215e-05
          -4.4542068273e-05 -1.1890886188e-05 -1.6744138874e-05 -1.8162273067e-05 1.4686810892e-06 3.852102098e-06
          1.4929124272e-06 -3.0328357848e-06 4.0460321752e-06 -4.70645281e-06 2.9789143901e-06 4.1246984712e-06
          4.3461350025e-06 8.2673287865e-06 8.8878871461e-06 3.2280018392e-05 4.9189648799e-05 6.0544267553e-05
          3.3736005729e-05 -9.9235887657e-05 2.6169048192e-05 5.0983434967e-05 4.6597782999e-05 2.5050330713e-05
          2.1051644877e-05 4.4373049089e-05 3.0938026652e-05 3.9392802625e-05 -3.6835373637e-05 -0.00020892676702
          -0.00046402040291 -0.00020711788068 -1.7945238529e-05 4.7536755367e-05 4.2386546421e-05 5.2668687131e-05
          3.4503821069e-05 3.6659795729e-05 -2.6410342259e-05 -8.6741889655e-05 -0.00019300081659 -0.00031855370566
          -0.00018636112406 -5.9021875009e-05 9.9401984812e-06 5.4066156061e-05 5.7815213354e-05 1.4887938454e-05
          2.3210538034e-05 -2.4777697596e-05 -6.540132042e-05 -9.4226807339e-05 -0.00012759587538 -9.0288582279e-05
          -4.5705076706e-05 -2.718301379e-05 1.6618654331e-05 2.1950635154e-05 1.1447754663e-05 -5.9756684534e-06
          -3.3888351319e-05 -1.4255954903e-05 -2.3234129159e-05 -4.2403868096e-05 -1.9547064332e-05 -3.004721933e-05
          -2.7322436992e-06 -1.734198813e-05 -1.8766825749e-05 -2.2737117974e-07 9.951519399e-06 -8.897387228e-06
          -2.4206500674e-06 3.7298231604e-05 -2.9284504237e-06 1.9245030246e-05 1.5340975862e-05 -7.1397701606e-06
          7.046558919e-07 -3.5425202444e-05 -2.9343608581e-05 -1.124078503e-05 -1.5202901801e-07 1.9339095044e-05
          4.0511069335e-05 4.9513595185e-05 1.7749398939e-05 2.593648817e-07 -6.634097132e-06 -1.8427330183e-05
          -2.7087286954e-05 -3.6557223076e-05 -1.2512685128e-05 4.6728123866e-06 2.2053405917e-05 5.0696392756e-05